
109384  0.0000000e+00
  68.7329149  63.7115240  50.3472757  68.5815191  64.6979380  50.5027485
  67.9319668  63.2943726  49.8949766  69.4421482  63.4499550  49.6774530
  69.0764427  62.9418468  51.5756130  69.0642834  61.9018507  51.2494850
  70.4355717  63.2386017  52.2185612  70.4847050  64.2908621  52.4986124
  70.4647636  62.5757742  53.0833769  71.6334963  62.8630733  51.4351749
  71.6889572  61.8140173  50.7139492  72.7196407  63.6523914  51.6324282
  73.5677004  63.3800268  51.1562777  72.7059078  64.4733143  52.2206450
  67.9568529  63.1850243  52.5974369  67.1219778  64.0911627  52.4182415
  67.9872036  62.4709034  53.6951971  68.6841631  61.7413664  53.6490965
  67.3922014  62.8658152  55.0158119  67.3044014  63.9476776  54.9159384
  66.0328960  62.2515821  55.2715254  65.4850483  62.9978323  55.8469200
  65.4613495  62.1881819  54.3455505  66.0079145  60.9149790  55.9377909
  66.5107775  60.9078217  56.9048452  64.5975208  60.5776548  56.4262629
  64.2272091  61.1625576  57.2681999  63.9971352  60.5795145  55.5165148
  64.5692873  59.5381641  56.7530203  66.4799309  59.7720242  55.0994968
  67.5293732  59.9055099  54.8369169  66.3305473  58.8665581  55.6876421
  65.8354235  59.7060251  54.2229414  68.4299755  62.6260710  56.1197424
  69.5504475  62.1152210  55.8661366  68.1294680  63.1256390  57.3329687
  67.1624804  63.2743502  57.5837994  69.1746902  63.4283400  58.3403063
  69.9767113  63.9528990  57.8209829  68.5292482  64.2634869  59.4624901
  68.2651091  65.2899837  59.2082644  67.6766872  63.6370373  59.7247934
  69.1656876  64.2682743  60.6803179  68.5376453  64.8549986  61.1080122
  69.7573566  62.1211815  58.9308453  68.9894485  61.1460066  58.9944458
  71.0389948  62.0327997  59.3600655  72.0930290  63.0297375  59.2376423
  71.6558552  63.9751863  59.5587492  72.3642492  63.1338549  58.1870699
  73.2436132  62.6335144  60.1642799  73.0831528  63.1497622  61.1107683
  74.1934681  63.0343437  59.8104239  73.1845999  61.1169481  60.2656507
  73.3729601  60.7630920  61.2792635  73.9129734  60.6986094  59.5709848
  71.6275406  60.8728552  60.0307512  71.4061975  59.9434280  59.5060873
  70.9888077  60.5464077  61.4168262  70.9817982  59.4063568  61.7839575
  70.3605223  61.5112782  62.0796156  70.3970575  62.4536753  61.7181540
  69.4027901  61.4573669  63.1745720  69.8605967  60.8819866  63.9792109
  69.0236330  62.8216600  63.6083460  68.4887552  63.3643675  62.8289413
  68.3568478  62.6794577  64.4588089  70.1814175  63.7420654  64.0969563
  70.9128141  63.7761641  63.2894993  69.6456528  65.1138544  64.4297028
  68.8598299  64.9915934  65.1751089  70.3852320  65.8467865  64.7520924
  69.1510010  65.5063915  63.5412550  70.9275675  63.3175898  65.3351450
  70.2951670  63.2996798  66.2227488  71.4433098  62.3815441  65.1208496
  71.6611099  64.1047192  65.5096483  68.1319904  60.5789471  62.8628969
  67.8268719  59.6818876  63.6349297  67.4145317  60.8749485  61.7518187
  67.7104473  61.5950012  61.1083460  66.2003136  60.2567387  61.2305164
  65.4894066  60.1104975  62.0437384  65.4876804  61.0858345  60.1227665
  66.1978149  61.1783934  59.3010330  64.6275282  60.5660295  59.7008181
  65.1858664  62.5453377  60.4824543  64.4886112  62.4276447  61.3119650
  66.0495996  63.0563593  60.9078074  64.5465469  63.3121347  59.3230772
  65.3199244  63.6590910  58.4002781  63.3179569  63.5540390  59.3208361
  66.5797186  58.8516808  60.6847286  65.8811188  57.8794527  60.9829760
  67.7620077  58.7528849  60.0713301  68.2443762  59.5901585  59.7774029
  68.1051731  57.3750401  59.4849491  67.2741365  56.8686724  58.9939642
  69.0767479  57.5910044  58.3149481  68.5586357  58.2128096  57.5848675
  69.9325752  58.1488943  58.6949778  69.5451593  56.4178848  57.7493382
  70.4268599  56.2188196  58.0727339  68.5628319  56.4230871  60.6354666
  68.2808876  55.1669979  60.5861235  69.1686010  56.9666195  61.7054796
  69.3888950  57.9485655  61.7912245  69.4233227  56.1857748  62.9334402
  69.9857044  55.2611923  62.8031731  70.2881479  56.9732571  63.9720774
  71.2942076  57.0347452  63.5571575  69.9236584  58.0004215  63.9856577
  70.2896452  56.4192104  65.3869677  69.2426538  56.3018417  65.6665039
  71.1016035  55.1666117  65.5760193  70.9108067  54.4877148  64.7448778
  72.1712923  55.3490877  65.6788015  70.7659388  54.5946884  66.4410782
  70.7778692  57.4987841  66.3554573  70.9007692  57.0559931  67.3438644
  71.7884779  57.7705765  66.0506535  70.1497269  58.3881569  66.4059210
  68.0773735  55.7762671  63.4866953  67.8940439  54.5564556  63.7243080
  67.1030903  56.7128611  63.5602188  67.2927952  57.6550055  63.2496119
  65.8186674  56.4486599  64.1722441  65.9063625  55.9919167  65.1580429
  65.0215149  57.7464104  64.3630266  64.6759129  58.2830667  63.4794712
  64.1814184  57.5242281  65.0210381  65.5920506  58.5059261  64.8975563
  64.9703264  55.3717661  63.4451771  64.4210672  54.4139767  63.9484835
  64.9136686  55.4801083  62.1366644  65.4172659  56.1778688  61.6078711
  64.3404007  54.4593763  61.1746693  63.3324623  54.3142366  61.5633917
  63.9684105  55.0024319  59.7693539  63.2972956  55.8368540  59.9729490
  64.7999620  55.3674603  59.1665506  63.1811571  53.9774227  58.9521790
  63.7516451  53.2237768  57.9791451  64.7488832  53.1782293  57.5670338
  62.6720333  52.6439142  57.2357321  62.8533411  52.0380020  56.4482641
  61.4596367  52.8680468  57.8331757  60.1558828  52.3744202  57.5789213
  60.0931597  51.7573929  56.6947603  59.0966225  52.8091717  58.3400345
  58.1151867  52.4111748  58.1284189  59.3509483  53.5751724  59.4791603
  58.5242987  53.9612436  60.0570917  60.7014608  53.9638090  59.8516273
  60.8096123  54.6747398  60.6574106  61.7526007  53.7234402  58.9565802
  65.0503254  53.0808544  61.3016462  64.3349218  52.1136475  61.5060091
  66.3983679  52.9331350  61.2082291  66.9153833  53.7827492  61.0323095
  67.1350336  51.6407204  61.3852978  66.6973019  50.9749794  60.6414700
  68.6502981  51.7311525  61.2511396  68.9302683  52.5570011  61.9051266
  69.0529013  50.7843924  61.6112232  69.1313648  52.0502615  59.8778725
  68.9220190  51.1783552  59.2581558  68.5209703  52.8265238  59.4164085
  70.5749035  52.3491287  59.8224354  71.3929415  52.3714733  60.7520962
  71.0108519  52.5119066  58.5779428  71.9868612  52.3713970  58.3594084
  70.2816105  52.3906326  57.8897524  66.9618845  51.0296583  62.7742767
  66.7350292  49.8277664  62.9335165  67.0031643  51.8641090  63.8344622
  67.0708847  52.8510237  63.6307287  66.4360905  51.5604210  65.1605558
  67.1611023  50.8141899  65.4855061  66.5156603  52.6909065  66.2225342
  66.3773632  53.5770130  65.6030273  65.5337954  52.6992655  67.4427748
  64.5068455  52.6548433  67.0801544  65.7473946  51.9150877  68.1690884
  65.6873083  53.6152124  68.0133629  68.0135298  52.6629019  66.6580486
  68.1350422  51.8808413  67.4075317  68.7588930  52.4890423  65.8819675
  68.3493233  53.5742044  67.1528959  65.0467539  50.9616375  65.2156782
  64.9706936  49.7696495  65.5491352  64.0119648  51.5827227  64.6710873
  64.1538334  52.4785423  64.2266989  62.7639675  50.9197807  64.5908928
  62.5410700  50.6382608  65.6200504  61.7070436  52.0674229  64.1439009
  61.7206860  52.7862215  64.9631929  62.0667553  52.5409985  63.2304239
  60.3334808  51.5426207  64.0091658  60.3674889  50.8450508  63.1723022
  60.1833200  51.0094833  64.9479580  59.2195940  52.6172733  63.8217258
  59.2090178  53.2250118  64.7265148  59.4289732  53.2623625  62.9684210
  57.8568840  51.9119740  63.7459993  57.8852749  51.1277151  62.9895401
  57.5886726  51.5758705  64.7475958  56.7382383  52.8558636  63.4053040
  55.8481216  52.4207687  63.2091427  56.5545177  53.4503651  64.2008638
  57.1540070  53.4585428  62.7095890  62.8027487  49.6603107  63.6456871
  62.1552515  48.6880398  63.9100456  63.4733677  49.7304487  62.5410318
  63.7202024  50.6526613  62.2113419  63.5534954  48.5710478  61.6098118
  62.5396109  48.2023144  61.4543581  64.1251898  49.0066242  60.3066206
  65.1016855  49.4888115  60.3519106  64.2343760  48.0636454  59.7709227
  62.9295826  50.1730728  59.4987345  63.4428358  51.2731647  60.0566435
  64.3562937  47.3546648  62.2215557  64.1306782  46.2703800  61.8213034
  65.2164125  47.5011158  63.1856108  65.3490305  48.4695005  63.4400511
  65.8606672  46.4013863  63.9796782  65.7833576  45.4651976  63.4267950
  67.3719645  46.7073822  64.2557669  67.8220940  46.7878723  63.2663202
  67.4952078  47.6468992  64.7944784  68.1342649  45.5154037  64.9339724
  67.7565622  45.4064512  65.9506226  68.0045557  44.1832018  64.2603350
  68.3194828  44.0853453  63.2214212  68.5126400  43.4957886  64.9366570
  66.9654036  43.8561821  64.2240286  69.5715570  45.8666182  64.9597311
  69.6755886  46.7118311  65.6400967  70.1434088  45.0468016  65.3944540
  69.9388027  46.1584377  63.9758205  65.0086164  45.9934616  65.1777697
  64.8492050  44.8231602  65.3548241  64.3944454  46.9370604  65.8548355
  64.5676136  47.9098701  65.6456375  63.4500265  46.6299343  66.9644260
  63.8972235  45.9838629  67.7198744  63.0841494  47.9833221  67.6528120
  62.8890753  48.6723804  66.8310785  62.1974516  47.8395319  68.2702112
  64.1643524  48.6533785  68.5252666  65.0519657  48.8644838  67.9288816
  63.5396099  49.9388170  69.0819216  62.5243521  49.6807337  69.3831539
  64.2359114  50.2596903  69.8567200  63.4664392  50.8325958  68.4623194
  64.6299887  47.7214241  69.5912409  63.8782692  47.3730087  70.2994871
  65.1431036  46.8775177  69.1301107  65.3015327  48.2393551  70.2759790
  62.2088480  45.8534241  66.4708662  61.6748619  44.9065399  67.0977068
  61.8258715  45.9677935  65.1883221  62.3018360  46.6834927  64.6579123
  60.8630943  45.0799513  64.4658089  59.8560286  45.2062511  64.8632622
  60.8816147  45.4385662  62.9746103  60.6983852  46.5124226  62.9376268
  61.8601179  45.1232004  62.6124287  59.7079039  44.7464085  62.2283220
  59.8060894  43.6704922  62.3727608  58.7604856  45.0944757  62.6398373
  59.7244787  45.0927591  60.7451582  59.5481491  46.1593676  60.6060219
  60.6103516  44.7577238  60.2056360  58.5787868  44.3800163  60.0753307
  58.6560917  43.2929564  60.0545979  57.7333498  44.5634031  60.7384300
  58.3497190  44.8039913  58.6984730  58.3075237  45.8106852  58.6285496
  59.0504932  44.5379686  58.0215311  57.4467134  44.5548439  58.3208323
  61.2456369  43.5839701  64.7015858  60.3069639  42.8321075  64.7703695
  62.4944687  43.1299639  64.6439171  63.1955338  43.8491011  64.5368958
  62.8815222  41.6830635  64.7383165  61.9809675  41.1289358  64.4736576
  63.9587641  41.3142681  63.6748505  64.8380136  41.9483948  63.7884665
  64.1805363  40.2633429  63.8605309  63.3109570  41.5063286  62.3237705
  63.3627844  42.7374458  61.6832638  64.0543938  43.4863806  62.0398903
  62.7697325  42.9359913  60.4278803  62.8897429  43.8991880  59.9543333
  61.8898439  41.9811010  59.9532747  61.1414766  42.2100067  58.8884592
  61.2149763  43.0994368  58.5347366  61.7429972  40.7417393  60.6316900
  61.0887241  39.9407959  60.3205299  62.5128698  40.4853344  61.8015146
  62.4768543  39.6138978  62.4384642  63.1983948  41.2343311  66.1933661
  63.3536625  40.0598717  66.4587784  63.2011747  42.1811390  67.1332788
  63.1792545  43.1400490  66.8168592  63.5001326  41.9899654  68.5519552
  64.3615627  41.3295841  68.6516380  64.0290785  43.2901764  69.0080643
  64.9290419  43.5965109  68.4748507  63.3057785  44.1054535  69.0247917
  64.5814133  43.1448460  70.3033543  65.3300142  43.7386417  70.3961134
  62.2818041  41.5335751  69.3739223  61.5459204  42.3786020  69.8184490
  61.9581223  40.2045536  69.5134544  62.5650024  39.5256090  69.0766144
  60.9056473  39.5991659  70.2880144  60.0106525  39.9203014  69.7551346
  60.9940386  38.0977917  70.3610659  60.1390839  37.7940512  70.9651279
  60.7971907  37.3657703  69.0463400  61.6008186  37.7158308  68.3984613
  60.8743954  36.2820935  69.1345978  59.8398066  37.6005125  68.5811377
  62.1953058  37.6754522  70.9350491  62.7459097  37.5829387  70.1541042
  60.7389069  40.2075434  71.6721249  59.6848488  40.5307055  72.1339798
  61.8300295  40.5406952  72.3094749  62.7027607  40.2337646  71.9042158
  61.8899584  41.3085222  73.5889006  61.2209749  40.8175802  74.2956877
  63.2561159  41.3537741  74.3104410  63.2306242  41.6609478  75.3559494
  63.9410543  39.9761176  74.2178631  63.9556932  39.3756866  73.3082676
  64.9767542  39.9538040  74.5568848  63.4731674  39.2467523  74.8790836
  64.1057920  42.2610950  73.6336470  64.5489073  42.8590965  74.2399788
  61.2191343  42.6917505  73.6300850  60.6693172  43.0559015  74.6690130
  61.2368631  43.4781694  72.6166439  61.6959810  43.1923580  71.7636299
  60.7390022  44.8410416  72.5173092  61.2319613  45.3309822  73.3569813
  61.1272621  45.4600573  71.2234068  62.2145939  45.3871489  71.2012005
  60.7854748  44.8982334  70.3541327  60.8335352  46.9206715  71.1595011
  59.9130774  47.5425196  70.3617144  59.3290472  47.0266342  69.6139336
  60.0049686  48.9064312  70.5052423  59.4697762  49.5129061  69.9003792
  61.0177374  49.2448616  71.3726091  61.5379381  50.4827023  71.7359257
  61.1472082  51.3290930  71.1906195  62.6788664  50.4426336  72.6268339
  63.2032824  51.3649464  72.8286409  63.1609011  49.2072916  73.1327248
  64.0245533  49.2613792  73.7789297  62.5779915  47.9877186  72.7058601
  62.9462576  47.0423412  73.0760574  61.4718914  48.0080128  71.8434477
  59.2038584  45.0242281  72.7839375  58.3765364  44.1656113  72.3260069
  58.7654448  46.0608912  73.5089588  59.4953632  46.5247536  74.0306377
  57.3847961  46.4141512  73.8409090  56.7240858  45.6709719  73.3945322
  57.2129726  46.2853575  75.3336287  57.7968836  47.0972967  75.7670975
  56.1665392  46.4037275  75.6148100  57.7044058  45.0245810  76.0930395
  58.7235117  44.7790527  75.7943106  57.6812267  45.2300310  77.1632481
  56.7172050  43.7913942  75.8412647  55.8585119  43.8848782  76.5061045
  56.4099026  43.8242006  74.7959948  57.3192549  42.3799086  76.1190701
  57.8701639  42.3586273  77.0593596  56.5118980  41.6553259  76.2251711
  58.0524015  41.8960571  74.9400568  57.3269272  41.9043016  74.2373943
  58.8631058  42.4543476  74.7138548  58.3185911  40.9402561  75.1289654
  57.0999575  47.8090858  73.1707668  57.5449038  48.7603331  73.7473726
  56.3855886  47.8568554  72.0501566  56.1043882  46.7738104  71.0975075
  55.1366568  46.4136314  71.4466095  56.8877554  46.0176992  71.1498356
  55.8734274  47.3822260  69.6903372  54.8218012  47.2915363  69.4183731
  56.4722443  47.0578051  68.8392973  56.1926460  48.8893509  69.8990536
  55.4899025  49.3944311  69.2363691  57.2217226  48.9890766  69.5538664
  56.2054777  49.1320038  71.4374638  57.0853281  49.7085142  71.7231083
  54.8708582  49.8325634  71.7351961  53.8752413  49.3182230  72.2671795
  54.8830557  51.1820269  71.5365076  55.5718660  51.4987659  70.8691835
  53.7469721  52.0772076  71.6946650  53.2701969  51.8894529  72.6567125
  54.2183256  53.4733915  71.7254114  55.0770903  53.5408640  72.3933029
  54.6149063  53.7294912  70.7429457  53.1782293  54.5613050  72.0112181
  52.4882364  54.5403624  71.1676693  52.4549866  54.3421841  73.3553123
  53.1421471  54.3861008  74.2002916  51.7256069  55.1430798  73.4764242
  51.9186735  53.3948660  73.3000326  53.8597298  56.0021162  71.9986773
  52.9962778  56.6669846  71.9762611  54.4406319  56.0369062  72.9203272
  54.5185471  56.0987759  71.1357069  52.6998568  51.8276739  70.6162930
  53.0584335  51.8733120  69.4352293  51.4334106  51.7923164  70.9370995
  51.1742687  51.7657709  71.9129276  50.4233456  51.5056705  69.8850250
  50.8195782  50.6460190  69.3445587  49.1123581  51.1604214  70.5690145
  49.1047716  50.2456570  71.1616755  48.8174677  51.9465923  71.2640476
  47.9689646  50.9150314  69.6460247  47.2720575  51.7487764  69.1896200
  47.8035355  49.7306538  69.1315746  47.0316505  49.6347189  68.4872913
  48.3613729  48.9352655  69.4077539  50.3487492  52.6757002  68.8714552
  50.2520657  53.8221550  69.3458271  50.2826548  52.4672031  67.5733376
  50.6305504  51.2292337  66.8877459  49.9149179  50.4070711  66.8915367
  51.6143179  50.8927488  67.2149754  50.7836866  51.6452408  65.4272270
  50.5606890  50.8768272  64.6870136  51.8117332  52.0074654  65.4303741
  49.9694633  52.8942633  65.2243519  48.9831209  52.6574659  64.8254156
  50.3960943  53.4567165  64.3938494  50.1220465  53.6191702  66.6034651
  51.0214186  54.2287683  66.5161324  48.8397074  54.4355965  66.7935610
  48.9192581  55.6277704  66.4430571  47.7724361  54.0557766  67.4217701
  47.7502728  53.1074286  67.7685308  46.6265583  54.9222851  67.7079153
  46.4592123  55.6750441  66.9375515  45.4241276  53.9601946  67.7660656
  45.6020117  53.3357477  66.8905544  45.4040337  53.3548069  68.6722660
  44.1798592  54.8063612  67.6153803  44.2159128  55.8212328  66.9078159
  43.0566740  54.4310045  68.1852341  42.2421741  55.0281906  68.1935072
  42.9314709  53.5928011  68.7346363  46.8697882  55.7457733  69.0053272
  45.8682251  56.1891556  69.5486403  48.0593920  55.9017420  69.6005630
  48.8641930  55.5671167  69.0902472  48.2810688  56.5919209  70.8999109
  47.5967884  56.0504436  71.5531063  49.6813393  56.3854456  71.4619493
  49.8437691  55.3197145  71.6229916  50.4277515  56.8396664  70.8102942
  49.8345757  57.0002604  72.7189970  49.7246170  56.2577963  73.3175421
  47.9894304  58.0800962  70.9397554  48.3673668  58.9160776  70.0929308
  47.3540115  58.4546757  72.0578003  47.2103214  57.7667809  72.7832317
  47.0637846  59.8063087  72.4113178  46.2201548  60.1146173  71.7937946
  46.3780403  59.6967793  73.7887478  46.1127663  60.7329082  73.9989138
  45.5864668  58.9476442  73.7713194  47.3754644  59.3087196  74.8716164
  47.5683546  58.0564260  75.3170538  47.0020056  57.2099733  74.9576569
  48.5965633  58.0411053  76.2894249  48.9538050  57.1564293  76.6208267
  48.9285278  59.2957592  76.6624451  49.7438765  59.7826481  77.6417351
  50.2940178  59.0436316  78.2052994  49.9042177  61.1501074  77.8709602
  50.6544828  61.5854120  78.5143995  49.1012955  62.0068121  77.0240211
  49.1920090  63.0790567  77.1160412  48.4239435  61.5433788  75.9139490
  48.0445385  62.1664810  75.1175833  48.2993937  60.1604414  75.6882334
  48.2517338  60.7773352  72.3808146  48.0633783  61.9368219  72.0424128
  49.4408464  60.2341652  72.7841854  49.4189978  59.2524195  73.0203915
  50.7156515  60.9453201  72.8270292  50.4981041  61.7972183  73.4712744
  51.8246126  60.0218534  73.4011745  51.7129135  58.9891481  73.0708122
  52.7553368  60.3587866  72.9447460  52.0086765  59.8410559  74.9171543
  51.1107206  60.2370119  75.3914928  51.9679165  58.3591557  75.2578831
  52.8289652  57.8819656  74.7899294  52.0505953  58.2383585  76.3380098
  50.9981680  57.9428864  74.9851036  53.1790829  60.4641962  75.6395960
  53.2314539  61.5159750  75.3583097  53.0035639  60.2330923  76.6902542
  54.0542841  60.0333357  75.1533031  50.9932470  61.5550375  71.3512897
  51.2899303  62.7703142  71.2154436  50.8775425  60.7132101  70.3356028
  50.6915951  59.7461557  70.5599594  50.8924246  61.1704254  68.9408493
  51.8650293  61.6610765  68.9034319  50.9323931  60.0878716  67.8716040
  49.9527025  59.6859503  67.6132154  51.2752485  60.5953026  66.9699049
  51.8044090  58.8705206  68.1405544  51.3274860  57.5688982  67.9775190
  50.3147125  57.4041080  67.6405478  52.0660639  56.4043760  68.1347752
  51.6418886  55.4205513  67.9985332  53.4031105  56.6199207  68.5176849
  54.3234491  55.6120491  68.5550976  55.1015282  55.7945108  69.0869856
  53.9272404  57.9303408  68.7615108  54.9309969  58.0507088  69.1414928
  53.0719995  59.0675640  68.5908651  53.4331894  60.0785685  68.7084055
  49.7576380  62.1501970  68.5452271  49.9563694  63.2823992  68.1019735
  48.5316658  61.7692280  69.0245438  48.3549547  60.8965302  69.5012808
  47.3496628  62.6071501  68.6555290  47.4216318  62.7784443  67.5814819
  46.0062504  61.9209146  68.8598347  45.8562708  61.6728544  69.9105787
  45.2069807  62.5704193  68.5028791  45.6661797  60.6611729  68.1852245
  45.3157806  60.4825735  66.9034338  45.0088406  59.1667938  66.6808558
  44.5388365  58.7153816  65.8196259  45.2559614  58.5484934  67.7757978
  45.1740551  57.5485706  67.8922176  45.6777906  59.4036388  68.7193012
  46.0458326  59.1350365  69.6984863  47.4450016  64.0690231  69.2669249
  46.9235277  65.0327778  68.6562014  48.0524778  64.2763567  70.4892540
  48.2903481  63.4521484  71.0223722  48.2521582  65.6336594  71.0639477
  47.3764372  66.2482643  70.8554411  48.4169483  65.4911423  72.6110649
  48.7603426  66.4039087  73.0979300  47.5333405  65.1310825  73.1380320
  49.2399311  64.7802591  72.6848316  49.4895077  66.4167023  70.4586172
  49.6650076  67.5821733  70.8365583  50.2955770  65.7734060  69.5656347
  49.9228764  64.9079037  69.2021751  51.5732718  66.2781143  69.0731716
  51.9571447  65.4615307  68.4616756  51.3984680  67.4869871  68.1098604
  50.8003759  68.2852125  68.5494375  52.3732948  67.9415607  67.9332972
  50.7569790  67.2004223  66.7487192  51.1501360  66.2167311  66.4920473
  49.6750832  67.1032619  66.8390799  51.0087013  68.2104731  65.6241512
  50.5408764  69.1600513  65.8840418  52.0888996  68.3438730  65.5651999
  50.3335571  67.6711369  64.2920351  49.2503691  67.6889133  64.4124126
  50.7034731  68.3221149  63.4998894  50.8354807  66.3245964  63.9769983
  50.4788542  65.5861521  64.5665932  50.5852318  66.0255146  63.0453205
  51.8329430  66.1862516  63.8993502  52.7151775  66.4271593  70.2041149
  53.6755800  67.1758556  69.9833679  52.4717760  65.8587217  71.3655615
  51.5707922  65.4152870  71.4737415  53.4601116  65.6287861  72.3855591
  54.0546274  66.5381908  72.4729919  52.8125191  65.1908684  73.6819172
  52.2660351  64.2767715  73.4497976  53.6367035  64.9867105  74.3653965
  51.8304968  66.2372112  74.2543888  51.1205292  66.4171934  73.4471369
  51.0629082  65.5534220  75.4021549  51.7636871  65.1810074  76.1493683
  50.4249048  66.3474226  75.7902384  50.3543091  64.8067141  75.0438070
  52.4212074  67.5611544  74.7308350  53.2134819  67.4225235  75.4664898
  52.9058123  68.0288363  73.8737822  51.6126585  68.2757092  74.8849773
  54.5766926  64.5970774  71.9647694  55.7394648  64.6837473  72.3446274
  54.2110586  63.7645960  71.0435820  53.2132339  63.6508703  70.9362555
  55.1393318  62.9631233  70.1342154  56.1559010  63.2888269  70.3546858
  55.1205349  61.3943863  70.4711819  54.1128445  61.0975409  70.7619572
  55.4554701  60.7632637  69.6480179  55.9210062  61.0242224  71.7492199
  55.5566883  61.6942835  72.5279331  55.6464338  59.6534967  72.3594236
  56.0655260  58.9036512  71.6884565  56.1473227  59.4241333  73.2999563
  54.5909643  59.3815851  72.3716593  57.4333906  61.1911058  71.4685154
  58.0449200  60.6796408  72.2118425  57.6660538  60.7383299  70.5046844
  57.5219679  62.2715664  71.5819120  54.6452570  63.2592201  68.6889648
  53.9780235  62.4043512  68.0907917  54.8131943  64.4435453  68.1440020
  55.2825212  65.2006817  68.6199999  54.3979597  64.7273207  66.7451620
  53.3491182  64.5029449  66.5510368  54.7891808  66.0898018  66.4162874
  54.2248917  66.7193937  67.1042442  55.8171749  66.3160658  66.6993904
  54.5274925  66.4011812  64.9150324  55.1714230  67.3677683  64.5296574
  53.6793280  65.8173656  64.1934299  55.1852608  63.7683773  65.7969761
  56.4326048  63.7986183  65.8385038  54.5541286  63.0061150  64.8532534
  53.1526899  62.7327442  64.8677588  52.5596619  63.5699654  64.4996881
  52.8722382  62.5820303  65.9102249  52.8972673  61.4782333  64.1383410
  52.5435686  61.6570616  63.1229544  52.1665096  60.8569002  64.6560621
  54.2606497  60.7291555  64.1133118  54.3515730  60.0719452  63.2484913
  54.3035793  60.1387405  65.0285530  55.2134657  61.9198513  64.0896893
  56.1782122  61.6875982  64.5407152  55.6538248  62.3992395  62.7780247
  55.9171247  61.5769529  61.9048643  55.8180141  63.7165070  62.5360966
  55.6386805  64.3303776  63.3178282  56.1126900  64.3761253  61.2912941
  55.4508352  63.9729357  60.5248213  55.7752037  65.8745241  61.4336205
  55.8478308  66.2875223  60.4275084  54.7982359  66.0476446  61.8849230
  56.6892624  66.5547514  62.3138952  56.2567949  66.9118309  63.0930376
  57.6070404  64.1889811  60.8120251  57.8616762  64.4180536  59.6280527
  58.4822893  63.7409019  61.7496014  58.1313229  63.3560705  62.6149511
  59.8158741  63.2019663  61.4770699  60.0071621  63.0854273  60.4103327
  60.9550047  64.2844057  61.9491386  61.0394144  65.0689983  61.1972141
  60.5815315  64.9096537  63.2548618  60.3468847  64.1277361  63.9771175
  61.3824892  65.6122112  63.4850550  59.7343826  65.5830765  63.1247187
  62.2258186  63.7635517  61.8755150  62.4884272  63.5578918  60.9753275
  60.0120497  61.8935490  62.2305346  59.5421028  61.7288780  63.3403826
  60.8923578  60.9931040  61.7345572  61.2765503  60.8433962  60.3334618
  62.1284771  61.5147352  60.2256155  60.5146313  60.9471560  59.5609236
  61.6984320  59.3590927  60.1729631  62.5904799  59.4033575  59.5481491
  60.9049797  58.7383986  59.7567034  62.1904516  58.9215136  61.5416098
  63.2541990  59.1528416  61.5966511  62.0496655  57.8607798  61.7492771
  61.3182735  59.7773075  62.4914169  60.4620409  59.1406012  62.7140617
  61.9669962  60.1041555  63.8721800  62.0542622  59.2223024  64.7199297
  62.4125814  61.3638687  64.1513968  62.2886181  62.0245314  63.3975649
  63.0090427  61.7452145  65.4173040  63.8446283  61.0976171  65.6828499
  63.4788704  63.2257748  65.3157377  62.8034401  63.8533497  64.7343206
  63.8687706  63.9934826  66.5724325  62.9322004  64.0961361  67.1205235
  64.4975233  63.3529425  67.1908903  64.4393730  64.8963690  66.3549280
  64.7949505  63.1757116  64.5634270  65.6431866  63.0884790  65.2423906
  64.7656298  62.3238707  63.8840055  64.8397493  64.1106033  64.0047979
  62.0328474  61.4472675  66.6560698  62.5293922  61.1289930  67.7302837
  60.6986713  61.4543486  66.4567232  60.4920959  61.7336845  65.5083561
  59.6319437  60.8823872  67.3925686  59.7278261  61.4265871  68.3321190
  58.2838678  61.0261869  66.7796564  57.5806093  61.1858559  67.5969887
  58.2510328  61.9664097  66.2292051  57.7327108  59.8324537  65.9593391
  58.3417320  59.2255592  64.8164701  57.4356508  58.4295273  64.2320871
  57.6190186  57.7768040  63.3914185  56.3583565  58.4312630  65.1047421
  55.5618858  57.8316927  64.9427128  56.5326834  59.2930365  66.1497068
  55.8485460  59.6196604  66.9189119  59.8737240  59.3901253  67.8004932
  59.3243647  59.0453339  68.8205481  60.5354261  58.5541916  67.0486164
  60.9078312  58.8710690  66.1648703  61.0775757  57.2384453  67.4851131
  60.2300644  56.7310190  67.9459238  61.6087914  56.4162445  66.2411547
  62.4554968  56.9609737  65.8234692  62.1795511  55.0547886  66.7001152
  62.7074337  54.5555782  65.8875704  62.8713131  55.2112865  67.5278091
  61.4283943  54.3401861  67.0365858  60.5354881  56.2062311  65.1376677
  59.8867130  55.3465509  65.3054047  59.9007511  57.0751238  64.9637842
  61.2025547  55.8352232  63.8317823  61.6628170  54.8482227  63.8775206
  60.4652691  55.7510090  63.0333948  61.8388844  56.6722202  63.5443544
  62.1301746  57.3708057  68.5639238  61.8437815  56.8875980  69.6546698
  63.1969261  58.1610632  68.3402348  63.2451820  58.6618567  67.4644613
  64.2011166  58.4330368  69.3816233  64.7515678  57.5413465  69.6816063
  65.2547121  59.4147873  68.7857056  64.6636724  60.2375841  68.3834839
  65.9113216  59.8123169  69.5596218  66.1493969  58.8632393  67.7123642
  65.4706717  58.4198856  66.9837570  66.8381596  59.9631786  67.0069981
  67.6265049  60.4095840  67.6130867  67.3257446  59.5801640  66.1105299
  66.0971689  60.6597233  66.6147518  67.1204567  57.7651739  68.2420778
  67.6873159  57.4030209  67.3843956  67.8487682  58.2314634  68.9055777
  66.5286207  56.9405746  68.6394024  63.5428810  59.0300083  70.6026745
  63.8592815  58.4925652  71.6716719  62.6750898  60.0556660  70.4792404
  62.5106621  60.2780581  69.5078468  61.9852638  60.7175827  71.5734816
  62.6723099  60.9702492  72.3810863  61.2368870  61.9918823  71.1701632
  60.4838467  61.7179966  70.4312325  60.8011198  62.3049593  72.1189451
  62.2169828  63.1196356  70.7319164  62.9318428  63.5227919  71.4492273
  62.7293587  62.8154898  69.8191929  61.3952303  64.3058634  70.3338242
  61.8389940  64.9560070  69.5798445  60.5218077  63.8674593  69.8510933
  60.8214378  65.0249386  71.5212202  61.5026665  65.4474306  72.1356678
  59.5982075  65.1411390  72.0999050  58.5092831  64.6664858  71.5940905
  58.4511995  64.3662977  70.6314802  57.6545334  64.8074245  72.1133614
  59.4314241  65.6916237  73.2388163  60.2116728  65.9772491  73.8130379
  58.5418129  65.6993818  73.7169790  60.9936810  59.8020172  72.3707104
  60.8297062  60.0452328  73.5108471  60.3513861  58.7629700  71.7660427
  60.6585312  58.6097956  70.8161497  59.6138239  57.7794600  72.5412416
  58.9296722  58.2832575  73.2240534  58.8230133  56.8456793  71.5534401
  58.1123066  57.4276638  70.9666777  59.5208168  56.3447857  70.8824158
  57.9742336  55.7159948  72.1138668  58.5129356  54.9825764  72.7138662
  57.2621393  56.2869024  72.7097559  57.2951746  54.9883318  70.9173775
  57.3576641  53.7441826  70.7498169  56.6693640  55.6266737  70.0224447
  60.5828094  56.9591141  73.4319496  60.2182055  56.6186190  74.5574665
  61.8389463  56.6667795  72.9957294  62.1393824  56.7828035  72.0384550
  62.8244925  56.0175419  73.8814688  62.3670435  55.3217602  74.5848370
  63.8732147  55.2847290  73.0343866  64.2824888  56.0686445  72.3971510
  65.0069809  54.7022486  73.9084291  65.4996681  55.4434729  74.5376682
  64.5164061  53.8805532  74.4302177  65.8439350  54.3912125  73.2832384
  63.1982708  54.1660738  72.1348572  62.7305079  53.3572769  72.6962471
  62.3566198  54.6310282  71.6214943  64.1073895  53.5337639  71.1080837
  63.6337280  53.2219267  70.1772213  64.9330235  54.2052412  70.8723736
  64.6639824  52.6678038  71.4664412  63.4291935  56.9973612  74.8569202
  63.6685848  56.6394138  76.0186291  63.7246799  58.2625961  74.4795990
  63.5798931  58.5407543  73.5195160  63.8654423  59.3730545  75.4142666
  64.8582268  59.3415403  75.8631372  63.7611961  60.2677155  74.8004103
  62.8444195  59.5645475  76.4570808  63.1584024  60.1322174  77.4901819
  61.6190767  59.0213299  76.3435602  61.4011860  58.5741138  75.4645729
  60.6737804  59.0267849  77.4293470  60.8654499  59.8623943  78.1024885
  59.3246889  59.4736862  76.8482971  59.0971565  58.6531401  76.1678362
  58.5450459  59.3585205  77.6012897  59.1701889  60.8927488  76.2463140
  60.0369453  61.1423159  75.6343079  57.9726982  61.0043097  75.3172159
  58.1373024  60.1800680  74.6232128  57.0770502  60.8984995  75.9293556
  58.0446100  61.9307280  74.7474098  59.2833185  61.9583797  77.3151588
  60.0088644  61.8106461  78.1150675  59.3732882  62.8903341  76.7570591
  58.3606577  61.9432020  77.8952980  60.5498505  57.7069759  78.1725407
  59.8800325  57.7035713  79.2130613  61.1837816  56.6202688  77.7459621
  61.7449760  56.7549944  76.9171000  61.2269831  55.2745342  78.3725214
  61.8905783  54.6083164  77.8212452  61.6733646  55.2916622  79.8529625
  60.8804607  55.7697296  80.4281616  61.8120003  54.2644310  80.1901436
  63.0598688  55.9272909  80.0687790  63.9068747  55.2852106  79.8270702
  63.1728363  56.8900204  79.5702934  63.1357574  56.2515736  81.5612125
  62.3414040  56.9120026  81.9089794  63.0827045  55.2597857  82.0102501
  64.3812180  56.9002151  81.8335533  64.8252773  57.5211287  81.1722088
  64.8800564  56.9907284  83.0733681  64.6214056  56.2404966  84.0612793
  63.9684343  55.5126619  83.8083076  64.9460649  56.2149096  85.0173283
  65.8680391  57.8297329  83.2694340  65.9851933  58.5005808  82.5235462
  66.2442589  57.9551220  84.1983223  59.8712063  54.6570587  78.2174158
  59.5957994  53.7846136  79.0317488  58.9537621  54.9524689  77.2726679
  59.1664028  55.8161402  76.7941761  57.6199913  54.3750095  77.1236181
  57.2421074  54.2977715  78.1430960  56.7128229  55.2800131  76.3216591
  57.2735071  55.4323101  75.3994179  55.8359051  54.7125196  76.0101080
  56.4273262  56.6196585  76.9390297  57.4111271  57.0873451  76.9777775
  55.6320000  57.3616838  75.7935429  56.3021708  57.6266623  74.9757671
  54.8949289  56.7142057  75.3185654  55.2364397  58.3112574  76.1539984
  55.7048273  56.8425655  78.2271147  56.2670517  56.2398720  78.9404058
  55.7035208  57.9019451  78.4836435  54.6628618  56.5585041  78.0797529
  57.6433039  52.9409266  76.5935421  56.8637896  52.1233511  77.0056629
  58.6934233  52.7240705  75.7591438  59.3299580  53.4872007  75.5787039
  58.8990974  51.4745378  75.0264788  58.1468391  50.7171535  75.2468967
  58.7635088  51.8210363  73.5433531  59.6041870  52.4514914  73.2537127
  58.7470818  50.9034252  72.9552937  57.5595760  52.5023794  73.2474947
  57.6289797  52.8031731  72.3384809  60.2894926  50.9486055  75.1978254
  61.3273573  51.7219210  75.1609468  60.3761196  49.6706581  75.4881430
  59.5862246  49.0665102  75.3115892  61.5831137  49.0012407  76.0822725
  62.4228907  49.5303154  75.6317663  61.5127945  49.2525673  77.6188135
  62.3280048  48.7197495  78.1083345  61.6282225  50.2880526  77.9390430
  60.2189398  48.7784958  78.1870031  59.0556431  49.4386339  78.3141613
  58.1731367  48.5907507  78.9007854  57.1909523  48.8649273  79.2565155
  58.8213396  47.4506664  79.2515087  58.4267092  46.6634941  79.7462034
  60.1009560  47.5407600  78.7214851  60.8884048  46.8016815  78.7310839
  61.7585850  47.5543785  75.7913971  60.8293200  46.9362164  75.3314495
  62.9608154  47.0324993  75.9954882  63.6469603  47.6573372  76.3941002
  63.3564091  45.6308222  75.8261871  62.7007198  45.1463509  75.1026773
  64.7695208  45.5621099  75.3538990  65.4218006  46.3246250  75.7795811
  64.7761822  45.6347561  74.2663431  65.6468916  44.0546799  75.7589960
  63.1197357  44.7731733  77.0917225  63.3582878  45.2759743  78.1974554
  62.6723099  43.5171938  77.0089912  62.5237370  43.1957483  76.0631084
  62.4562979  42.6355505  78.1811094  62.2337866  43.2961226  79.0191031
  61.2627506  41.6387415  78.0714750  60.8138466  41.3534689  79.0228987
  60.3716469  42.0970440  77.6425362  61.5901518  40.5095863  77.2757626
  60.7676744  40.3503275  76.8069696  63.6409426  41.7411184  78.6234474
  63.5653877  41.1836529  79.6920490  64.7611332  41.6499949  77.8512859
  64.8986340  42.2851372  77.0781183  65.9559536  40.9411478  78.3158922
  65.6155825  40.0290918  78.8062048  66.8058443  40.6145382  77.0930147
  66.1921644  40.1234484  76.3378143  67.1626377  41.5628481  76.6911268
  68.0602646  39.7039771  77.2465801  67.9833126  38.4512019  77.8791761
  69.2295504  37.9559755  77.8519058  69.4374371  36.9510317  78.1884670
  70.0832224  38.9056873  77.3504114  71.0878325  38.8018489  77.3588991
  69.3326330  39.9974060  76.9345808  69.7152710  40.8629036  76.4140940
  66.8100595  41.7296028  79.3496037  67.4313736  41.1389732  80.1936436
  66.8109941  43.0390692  79.1776037  66.1383533  43.3429003  78.4881496
  67.4117041  44.0209961  80.0361633  68.3814192  43.6871672  80.4053593
  67.6682329  45.2690697  79.1748714  67.7785921  46.2127352  79.7091103
  66.7681170  45.4925728  78.6022091  68.9838219  44.8109436  77.9733324
  66.3966560  44.3653059  81.2269115  66.8023586  44.2712831  82.3582554
  65.1499891  44.7735071  80.9187126  64.8328257  44.6395302  79.9692059
  64.2208481  45.4902697  81.8613911  64.7825289  46.0117626  82.6364136
  63.4241772  46.6079569  81.1429596  62.8140831  46.1399269  80.3704071
  62.4115038  47.2073412  82.1781540  61.8337345  48.0413198  81.7797089
  61.6533899  46.4712572  82.4456406  62.9542017  47.6196337  83.0288029
  64.2609930  47.7969551  80.5245781  64.8134089  47.5108624  79.6295357
  63.6467171  48.6768532  80.3334236  65.0013256  48.1891632  81.2218380
  63.2555389  44.4257450  82.4721813  62.4950409  43.7502575  81.6940880
  63.1009007  44.3612051  83.7769222  64.0605164  45.0220633  84.7021103
  64.0924501  46.1092091  84.6300030  65.0111008  44.5725060  84.4150829
  63.8229513  44.4155264  86.1080647  63.1099129  45.0230932  86.6653252
  64.7277832  44.2905807  86.7028522  63.2669973  43.0795383  85.7989883
  62.8677177  42.6589775  86.7219257  64.0177202  42.3648691  85.4617119
  62.3420811  43.4039021  84.6009827  62.0871305  42.4838257  84.0750980
  61.0794353  44.0254545  85.0245953  60.5985165  43.8400173  86.1706161
  60.3542185  44.6121979  84.0351582  60.7976484  44.6924067  83.1312656
  58.9979649  45.1861906  84.1500092  58.5100269  44.5893621  84.9206066
  58.9790583  46.6323471  84.6995068  59.7825575  46.7215109  85.4306316
  59.3866682  47.0920563  83.7991619  57.7199459  47.2215509  85.3363705
  56.7901897  47.2021675  84.7677898  57.5790691  46.6581392  86.2587643
  57.8943539  48.6613703  85.6634045  58.7321329  48.7098122  86.3590240
  57.9571486  49.2448521  84.7448730  56.6877556  49.1951418  86.4387131
  55.7294607  49.1308165  85.9233093  56.5770054  48.6719656  87.3885059
  57.0552206  50.5944443  86.8229008  56.9465590  51.2505770  86.0627747
  56.5661335  50.9006548  87.6518345  58.0020523  50.5106640  87.1643543
  58.1964922  45.0776815  82.8450203  58.7556553  45.3439617  81.7791271
  56.9182634  44.8613071  82.9918861  56.6248894  44.7187948  83.9477730
  55.9834862  44.8257256  81.9680119  56.4697218  45.1165628  81.0368347
  55.3505230  43.4124899  81.7745399  55.1032782  42.9037189  82.7062702
  54.4944429  43.5505390  81.1141109  56.3329411  42.4516678  81.1684608
  57.2483349  42.2707987  81.7318726  55.6762505  41.0429478  81.0663319
  55.0650406  40.6758642  81.8908215  55.0367403  41.1140156  80.1865101
  56.3875771  40.2220488  80.9755230  56.7862892  42.7035427  79.7319221
  55.9972668  42.9975080  79.0397310  57.5742197  43.4492588  79.6261978
  57.2237444  41.7819500  79.3479967  54.8011255  45.7776737  82.3210716
  54.1148663  45.6274939  83.2869434  54.6946526  46.8283129  81.5187740
  55.4894781  47.0793104  80.9483814  53.6321306  47.8224993  81.5557384
  52.7450514  47.3283815  81.9520187  53.9854622  49.1024256  82.4168587
  55.0095797  49.4297218  82.2375393  53.3315516  49.9360085  82.1606636
  54.0128517  48.9658642  83.9620209  54.7077513  48.1825495  84.2647266
  54.3752861  49.9051237  84.3797874  52.6555729  48.6993694  84.6067905
  51.7327642  48.0520535  84.0833282  52.4437714  49.2894602  85.6749630
  53.4717560  48.3472633  80.1442051  54.3089962  48.9480686  79.5273495
  52.2501707  48.4559631  79.6521759  51.1540079  47.3906231  79.8691511
  50.7988119  47.5230837  80.8911037  51.6282701  46.4092445  79.8597860
  50.0663471  47.7262545  78.8333702  49.2547131  48.2788420  79.3066549
  49.5538855  46.8495893  78.4372044  50.7171822  48.6010599  77.7734518
  49.9849129  49.2676973  77.3179579  51.2056351  47.9857111  77.0178986
  51.7492437  49.3265009  78.6302376  52.5711060  49.5696497  77.9567957
  51.2472916  50.6959677  79.0702152  50.5740738  50.7653761  80.0869560
  51.4429283  51.7045784  78.2290220  51.8266773  51.4150906  77.3407459
  50.8603382  53.0859232  78.2672119  51.0764027  53.4850693  79.2582226
  51.7581892  53.9054346  77.3253536  51.7097473  53.3744097  76.3746881
  51.2004852  55.3593159  77.2016430  51.7399549  55.9784412  76.4848757
  50.1687574  55.3676081  76.8501043  51.3227987  55.7856131  78.1973410
  53.2500553  53.8794565  77.8061008  53.7865686  52.9682636  77.5415564
  53.7594366  54.6352768  77.2082996  53.5593987  54.2289448  79.2122030
  54.6484900  54.1852188  79.2036009  53.0178881  55.1248693  79.5158243
  53.2456017  53.4291935  79.8830414  49.3994808  53.0245113  77.8905106
  49.0070343  52.2531033  77.0044041  48.5202885  53.8130999  78.6654806
  48.8593483  54.6890163  79.8125267  49.7343922  55.2984428  79.5867062
  48.8554287  54.0666151  80.7073498  47.6852608  55.5965233  79.9661112
  47.7648354  56.4196444  79.2560148  47.7291441  55.9833908  80.9842014
  46.5244055  54.6562099  79.6685314  45.5769730  55.1584339  79.4729805
  46.4467144  54.0437126  80.5668068  47.0947981  53.8271284  78.5077715
  46.7919111  52.7903366  78.6541128  46.6235685  54.3130922  77.0984745
  47.1579075  55.2701330  76.5499496  45.5859041  53.7344122  76.4655399
  45.1670313  52.9274082  76.9053078  45.1336288  54.1724873  75.1403761
  46.0968828  54.2256212  74.6330070  44.2122030  53.1556129  74.3877268
  44.2114687  53.3107042  73.3088207  44.7208118  52.2019577  74.5289993
  42.7049589  53.1026983  74.7099161  42.2732162  54.1013050  74.6429586
  42.2160625  52.4490738  73.9875221  42.4493361  52.7112150  76.1249018
  42.9186201  51.6144180  76.4564943  41.6182137  53.3070517  76.8809891
  44.5411587  55.6630373  75.0656223  44.6509027  56.3432693  74.0579557
  44.1166735  56.1558819  76.2390518  44.0628099  55.6013489  77.0814848
  43.6684847  57.5669527  76.4769840  44.2079592  58.1772709  75.7527065
  42.1713448  57.6593208  76.1174679  42.0525265  56.9530392  75.2957916
  41.6325235  57.3180676  77.0013905  41.6188526  58.9095974  75.5092573
  40.8782816  59.7888470  76.2110376  40.6800222  59.6826077  77.2673559
  40.5169725  60.8551216  75.4315948  40.0991583  61.7302132  75.7139874
  40.9963417  60.6946659  74.1755915  40.9232187  61.5280533  73.0338335
  40.4605150  62.5038576  73.0227995  41.6866016  61.1426020  71.8853855
  41.6697454  61.8278551  71.0507870  42.3696041  59.8943663  71.8148565
  42.9403925  59.5761871  70.9549952  42.2325993  59.0073824  72.9132795
  42.8560495  58.1260967  72.8809309  41.5914822  59.3476677  74.1105366
  44.0464687  58.0059004  77.8864717  43.7992048  57.2413111  78.7725735
  44.3602467  59.2972422  78.0184889  44.3339252  60.3684187  76.9899702
  43.3476686  60.6566477  76.6262150  44.9796057  60.1641512  76.1358786
  45.0173378  61.5761042  77.6942635  44.1987228  62.2566938  77.9282951
  45.8306074  62.0281601  77.1265268  45.6022692  61.0535860  79.0051222
  45.5343390  61.8329954  79.7640753  46.6120958  60.6602383  78.8884258
  44.5630836  59.9859905  79.3398380  45.1622295  59.3122435  79.9523735
  43.1961107  60.4167032  79.9616480  42.1601439  60.7263088  79.3318224
  43.0400515  60.3688955  81.3110924  44.1239071  60.0299215  82.2361374
  45.0365591  60.5655003  81.9747353  44.1571045  58.9533949  82.0685291
  43.6340046  60.4517317  83.6815929  44.0613127  61.3937140  84.0253639
  43.8895416  59.6975803  84.4259453  42.1313334  60.5390692  83.5619545
  41.7895794  61.4113855  84.1190624  41.6975641  59.6028423  83.9132786
  41.7248106  60.5596066  82.0808029  41.1145782  59.6840239  81.8592739
  40.8762217  61.8265533  81.6765308  41.4111137  62.8827477  81.2952900
  39.5803165  61.7718363  81.8281364  39.2075658  60.8425856  81.9609833
  38.7223101  62.8835821  81.4939880  38.9788365  63.0483007  80.4474926
  37.3165798  62.3475313  81.6120815  37.1389985  61.3122463  81.3209629
  37.1271205  62.3925924  82.6845455  36.2351298  63.3175898  81.1173248
  36.4697146  64.3333483  81.4356041  36.1570978  63.2656765  79.5810223
  35.8805609  62.2463989  79.3113708  35.4629779  63.9923286  79.1588020
  37.0963788  63.4284067  79.0524673  34.8710680  62.8420162  81.5647984
  34.7574544  61.7625570  81.4649487  34.8604417  63.0336380  82.6377678
  34.0920472  63.3336496  80.9821129  39.0249062  64.1533709  82.3088169
  39.0928078  65.2590370  81.7923737  39.3390226  64.0157890  83.6531258
  39.3851805  63.1119776  84.1015720  39.7483683  65.1339626  84.4666672
  38.9760566  65.9013033  84.4135571  39.5967150  64.7391081  85.9095383
  39.6880841  65.5788755  86.5984058  38.5943937  64.3376827  86.0589123
  40.2766800  63.9207649  86.1463070  41.1553907  65.7192898  84.1307354
  41.5443325  66.7168331  84.7320557  41.9383717  65.0582647  83.2532406
  41.5807247  64.2583466  82.7509308  43.3472967  65.3616762  82.9996967
  43.6270761  66.2859201  83.5052681  44.1856146  64.1833544  83.4769344
  43.9027309  63.3461142  82.8388786  45.2559996  64.3188477  83.3219528
  44.0013313  63.7753057  84.8230839  44.6069193  64.2711639  85.3789425
  43.5827255  65.6061745  81.5303135  44.7349787  65.5016088  81.1436081
  42.6070309  65.8747625  80.6851578  41.6639471  65.8739710  81.0466671
  42.7760220  66.3018036  79.2760563  43.6604309  66.9382572  79.2468166
  42.9607391  65.0154066  78.4298897  43.0957079  65.2538681  77.3748922
  43.8941526  64.5227623  78.7021828  41.5232420  63.9341259  78.4965801
  41.9180965  63.1301403  79.4878387  41.5271568  67.0839405  78.6624193
  41.6778803  67.7196360  77.6435375  40.3583670  67.0732498  79.2619085
  40.3418446  66.6227722  80.1657295  39.1403937  67.8420925  78.7836075
  38.5755873  68.2377720  79.6277237  39.5124102  68.7473059  78.3037233
  38.3904862  67.0227003  77.7384377  37.4017525  67.5762892  77.3401690
  38.8193202  65.8593321  77.2844934  39.5606136  65.3749561  77.7702570
  38.3972430  65.2188826  76.0455894  37.4971366  65.7392073  75.7182169
  39.3715620  65.3250694  74.8221779  40.1340580  64.5603132  74.9700260
  38.6980200  64.9118137  73.5245752  39.3435407  65.0287867  72.6540947
  38.5412431  63.8385057  73.6319876  37.7166057  65.3813219  73.4575891
  40.0340843  66.7112780  74.6956921  41.0022402  66.6003227  75.1840162
  40.1680660  66.8746853  73.6263704  39.4995332  67.5661850  75.1098061
  38.0982327  63.7289381  76.2400007  38.9848995  63.0211687  76.6543007
  36.9146395  63.1830072  75.9451199  35.7168531  63.8916540  75.6496716
  35.7400060  64.5400620  74.7738075  35.6143737  64.5186996  76.5353394
  34.6126509  62.7977610  75.4209185  34.4382238  62.5965977  74.3639421
  33.6946702  63.1452417  75.8949089  35.1361895  61.5914822  76.1070299
  34.6808505  60.6820011  75.7150888  35.0353026  61.6340590  77.1915150
  36.6339707  61.7403889  75.8830404  37.0791268  61.3309526  76.7898464
  37.1073556  60.9680128  74.6073627  37.2887468  61.6268539  73.5851240
  37.2366738  59.5718575  74.6689844  36.9973111  58.7488651  75.8481741
  35.9242845  58.6684227  76.0220814  37.5255370  59.2221212  76.6758823
  37.6901817  57.4302053  75.5769062  37.1704292  56.6503859  76.1335373
  38.6784959  57.5781107  76.0121775  37.7532411  57.3432875  74.0911293
  36.7733455  57.0166302  73.7429857  38.4626484  56.6511869  73.6374331
  37.9485941  58.7827873  73.6614513  39.0041351  59.0540791  73.6797714
  37.4926877  58.9399147  72.2240162  36.4232588  58.4762764  71.8378544
  38.2225204  59.7000694  71.4687395  39.0374231  60.0553179  71.9481468
  37.9533911  60.1289940  70.1107645  38.5945535  60.9558964  69.8054028
  38.2303619  58.9453411  69.2028618  37.6640797  58.1626034  69.7075796
  37.7285171  59.0113115  68.2375097  39.6681118  58.4283543  69.1429996
  40.5878115  59.1492224  68.4110737  40.3261328  60.0278091  67.8400946
  41.9828939  58.8239908  68.4515858  42.6559162  59.4215870  67.8546619
  42.4549437  57.7225971  69.2161036  43.4800529  57.4139452  69.3585253
  41.5165949  57.0567942  70.0058222  41.9021416  56.3667965  70.7418013
  40.1162529  57.3557138  69.9125195  39.3906188  56.7899466  70.4780006
  36.5435815  60.7837915  69.8844433  35.9428716  60.6080770  68.8693857
  36.0181189  61.5106487  70.8784389  36.5958738  61.6348267  71.6975117
  34.7623301  62.2068787  70.8854866  34.2404628  62.2525263  69.9296236
  33.8358188  61.4180565  71.7906666  34.4072795  61.2616777  72.7055883
  33.0423141  62.1202374  72.0463896  33.1985784  60.1122189  71.2571430
  32.2694111  60.4033613  70.7672548  33.8009167  59.5997667  70.5070210
  32.8655195  59.0911484  72.4076891  31.6992593  58.8748264  72.7386522
  33.7992883  58.5863352  73.0563831  33.5978556  57.9571438  73.8203526
  34.7094822  58.5368490  72.6214123  35.0102639  63.6822176  71.3072777
  36.0497522  64.1111612  71.8581486  34.0628648  64.5499086  70.9158754
  33.2139993  64.2307520  70.4712772  34.0551782  65.9841967  71.2669373
  34.9469566  66.3800812  70.7810259  32.8213644  66.6685247  70.6300783
  32.7418447  67.7192879  70.9087753  32.8208375  66.6212225  69.5411062
  31.5610838  66.0563374  71.2375307  31.6976881  65.0062752  71.4960003
  31.2745309  66.4929962  72.1942568  30.4292846  66.3372469  70.3069258
  30.4751158  67.3949099  70.0474072  30.6781173  65.7398224  69.4298506
  29.1020918  65.9571171  70.9268570  28.3764100  66.0962486  70.1255274
  29.1342044  64.9057722  71.2127924  28.7071490  66.8464327  72.0107269
  27.6979780  66.8692493  72.0446777  29.1443467  66.6071749  72.8892040
  28.7915874  67.8456688  71.8903208  34.2755938  66.1871099  72.7969170
  33.8634968  65.2719736  73.5926056  34.8433256  67.3194695  73.3074951
  35.5465245  68.2903528  72.4902916  34.8066616  69.0551424  72.2540760
  36.0690022  67.9592419  71.5928078  36.5543246  68.9076185  73.3989573
  36.7416859  69.9391317  73.1006718  37.3831820  68.2041025  73.4774399
  35.7115531  68.9615488  74.6980524  35.0464320  69.8209858  74.6138859
  36.3150287  69.0490866  75.6015205  34.8008156  67.7525330  74.7035074
  35.2985454  67.0278358  75.3478527  33.3612323  67.9801178  75.1634359
  32.5852323  68.4756136  74.3947458  33.1253862  67.9220629  76.4628029
  33.9537191  67.9134274  77.0406437  31.8548059  68.1912518  77.1349573
  31.0812354  67.7698374  76.4930058  32.0083714  67.5251245  78.4821558
  32.8575969  67.8720617  79.0708447  31.1566210  67.7894354  79.1088676
  31.9447255  66.0026932  78.4100771  32.5326061  65.5339193  77.6209354
  32.5226808  65.3992414  79.7310638  31.8252635  65.6362963  80.5345058
  32.4899888  64.3113947  79.6708059  33.5501242  65.6248713  80.0166321
  30.5471182  65.5488825  78.2278013  29.9277616  65.9100389  79.0488148
  30.0609875  65.8492327  77.2995901  30.4427266  64.4671488  78.3117819
  31.5790582  69.6714497  77.2014332  30.4557753  70.1173162  76.9984388
  32.5582576  70.4478598  77.5768900  33.3953524  69.9378777  77.8203869
  32.3244977  71.7908287  78.1116629  31.3521767  72.1322250  77.7564859
  32.3598099  71.7734241  79.6490097  31.4997435  71.1967754  79.9893904
  33.5822058  71.2889957  80.3257179  33.3198977  71.0993147  81.3665390
  34.0671492  70.4878759  79.7679138  34.3234062  72.0862722  80.2703285
  32.0283198  73.1209946  80.0966549  31.7180872  73.1589127  81.0043621
  33.3046556  72.7779245  77.4079990  34.2137146  72.3210907  76.7360449
  33.0672288  74.1073990  77.3838091  32.3536587  74.3700027  78.0486059
  33.8731050  75.1931620  76.7997169  33.9353085  75.0343847  75.7231379
  33.1409907  76.5146828  76.9319105  33.6666799  77.2726345  76.3511705
  32.1222138  76.4959669  76.5448189  33.0658937  77.0057535  78.2790375
  32.2656989  76.7487478  78.7429714  35.2818799  75.3202629  77.4170780
  35.4221678  75.0667381  78.6253262  36.3043094  75.8179092  76.6649723
  36.2467360  76.0373735  75.2764273  35.5874038  76.8940687  75.1369333
  35.9566164  75.1053333  74.7914076  37.6971889  76.3923931  74.7357464
  37.7170110  77.3966980  74.3125725  37.9789639  75.6746054  73.9653683
  38.5851002  76.3093710  75.9704304  39.0518260  77.2840500  76.1127901
  39.2628145  75.4945803  75.7156467  37.6681995  75.8326578  77.1649933
  37.8629518  74.8234510  77.5278616  37.8647256  76.6640902  78.4305763
  38.4749413  76.1963797  79.3570423  37.2429967  77.8331137  78.4761238
  36.7333150  78.0474615  77.6309156  36.9726968  78.5618401  79.7006178
  37.8957677  79.0967989  79.9239111  35.8876228  79.6159649  79.4991159
  36.1539197  80.2982044  78.6918163  35.0201893  79.0391588  79.1782522
  35.5691552  80.2426815  80.6570339  36.2332058  80.8716774  80.9486008
  36.7032790  77.7123308  81.0441875  37.4559212  77.8326750  82.0137405
  35.6573582  76.8073177  81.0708427  35.1388359  76.6690350  80.2152061
  35.3289986  75.9168911  82.1662140  35.2754188  76.4935303  83.0896378
  33.9845800  75.1365566  81.9254398  34.1430378  74.5079899  81.0491371
  33.8660574  74.4720745  82.7813148  32.7165246  76.0371542  81.9073868
  32.9380703  76.6671038  81.0458851  31.8033934  75.4715586  81.7219162
  32.6017547  76.7806578  83.2359028  31.5808463  76.7274475  83.6140823
  33.2644081  76.3124514  83.9637566  33.0330968  78.2095194  83.0419064
  33.9857912  78.3734751  83.3344650  32.3635721  79.2499352  82.5173092
  31.0841322  79.1449308  82.3589706  30.6710267  78.3245611  82.7790165
  30.5626464  79.9549532  82.0556259  32.9442024  80.3435993  82.1585464
  33.9451241  80.4294968  82.0542336  32.4012446  81.1319828  81.8364429
  36.4734530  74.8696947  82.3736382  36.6583443  74.5604992  83.5723019
  37.1388435  74.3612099  81.3646507  36.9567847  74.7562361  80.4531002
  38.3019471  73.5490036  81.5319824  37.9772162  72.7550650  82.2045231
  38.7391472  72.8891850  80.1794434  39.2108154  73.6142254  79.5161533
  39.5636058  72.2357368  80.4647064  37.6948524  72.0108128  79.5693159
  36.7300081  72.4479437  79.3122339  38.2739234  71.4171505  78.2407236
  39.1237330  70.7518053  78.3932018  37.4810076  70.9438992  77.6615667
  38.5545897  72.2870874  77.6469755  37.4351811  70.7339811  80.3357029
  38.3594918  70.2390957  80.6337738  36.8706036  70.9848022  81.2337303
  36.8067122  70.1680136  79.6480942  39.4232154  74.3375778  82.3083496
  39.9942183  73.8600016  83.2607460  39.7896743  75.5460501  81.8542957
  39.3102980  75.8358765  81.0138798  40.8699846  76.3085651  82.4043941
  41.7497110  75.6650066  82.4078941  41.2263203  77.5444651  81.5049839
  41.1858511  77.1688747  80.4825401  40.3534269  78.1882668  81.6130638
  42.4162626  78.2360315  81.9182491  42.3993063  79.1403055  81.5963650
  40.6583118  76.7700148  83.8922882  41.6180182  76.8134117  84.6362114
  39.3744516  76.8168831  84.3073845  38.6294937  76.6982508  83.6357594
  39.0725279  76.8700504  85.7418728  39.7246623  77.6257515  86.1797523
  37.5184274  77.1942091  85.8493900  37.4533820  78.1355524  85.3037262
  36.8729997  76.4553404  85.3744125  37.0048690  77.4979448  87.2004032
  36.7228675  76.5925169  87.7377796  37.7729917  78.0791235  87.7106190
  35.7472563  78.4547853  87.0701694  35.5341196  79.0380478  87.9659843
  35.9677172  79.1218948  86.2368202  34.4165969  77.8523493  86.8117523
  34.4258261  76.8548107  86.6538334  33.2757449  78.4451151  86.4950085
  33.1569910  79.7143555  86.3176823  34.0764570  80.1321220  86.3300323
  32.2928953  80.1190472  85.9865284  32.2045088  77.7079248  86.2821579
  32.3220038  76.7130566  86.4107418  31.3423610  78.1795454  86.0489655
  39.4735789  75.6698942  86.5134525  40.0872660  75.7935667  87.5479317
  39.2504954  74.4809484  85.9370518  38.6928439  74.3543863  85.1045227
  39.5634079  73.2447624  86.5915012  39.4444013  73.3964014  87.6643181
  38.5782170  72.1328688  86.2051010  38.6506772  71.9784069  85.1285362
  38.9008832  71.2492657  86.7557621  37.1055174  72.2916937  86.4423275
  36.6845322  73.1841469  87.2831440  36.4065385  71.3671207  85.9793186
  41.0500908  72.8394318  86.4510059  41.5842915  72.3404932  87.4600983
  41.7232561  73.2881117  85.4356003  41.2332296  73.7012100  84.6549988
  43.1666279  73.1838655  85.2500820  43.3173609  72.1253014  85.4617882
  43.5661364  73.4124947  83.7962246  43.2876778  74.4429874  83.5756588
  44.6498251  73.2955503  83.7900734  43.0425930  72.4237919  82.7100563
  43.5226297  72.3030758  81.3819408  42.8455257  71.2186003  80.8813477
  42.8663588  70.8446121  79.8683882  42.1452141  70.5853033  81.8662357
  41.6181993  69.7308826  81.7551899  42.2043657  71.3382006  82.9715919
  41.7263889  71.2115192  83.9317513  44.0224266  74.0402412  86.2764454
  45.1858091  73.7385750  86.5718842  43.4740925  75.0617981  86.9653320
  42.5044537  75.2347851  86.7417622  44.1192389  75.8647776  87.9320812
  45.0186634  76.2159252  87.4262810  43.2251406  76.9879055  88.2813358
  43.7616014  77.6955795  88.9134026  42.8628397  77.5330782  87.4097729
  42.3881817  76.5976286  88.8603687  44.5532274  75.0939131  89.1826153
  45.5340815  75.4887438  89.8281860  43.8998032  73.9327335  89.4739342
  43.0730581  73.7873220  88.9122868  44.2962265  72.9856777  90.5630493
  44.3611050  73.6700678  91.4089203  43.2641268  71.8687868  90.8584309
  43.6288500  71.4205217  91.7826176  41.8721390  72.3365736  91.1308765
  41.9397736  72.8480196  92.0910549  41.6406679  73.1102371  90.3987694
  41.2125874  71.4688349  91.1195564  43.1492043  70.9482670  89.8338890
  42.6924610  71.3980579  89.1192818  45.6246853  72.3229456  90.2322292
  46.3212299  71.8361235  91.0957909  46.0802221  72.4177551  88.9894485
  45.4933643  72.8401709  88.2842827  47.3536062  71.7798090  88.5436821
  47.7599335  70.9816170  89.1648769  47.0940208  71.1000252  87.1586323
  47.2956800  71.8335438  86.3780022  47.9325199  70.4204893  87.0061111
  45.7484722  70.3821659  86.8261719  44.9517488  71.1028576  87.0103645
  45.5891895  69.8655128  85.4256344  44.6071577  69.4088221  85.3025436
  45.6706858  70.7062244  84.7366810  46.3799858  69.1393232  85.2375126
  45.4781723  69.0905142  87.6334667  46.3180304  68.3984900  87.5714779
  45.2721310  69.3956041  88.6594200  44.5462656  68.6744928  87.2506142
  48.4648037  72.8525734  88.4492397  48.2865286  73.9870262  87.9333115
  49.6804428  72.4879551  88.8995171  49.7008848  71.5045786  89.1289711
  50.9128428  73.3020639  88.9107418  50.5639267  74.2915726  89.2060947
  51.8868971  72.6675653  89.9261856  51.5439892  72.4274826  90.9325981
  52.4047804  71.7879391  89.5438766  52.9247379  73.7595034  90.3712082
  54.0442419  73.7749529  89.9885559  52.4759245  74.7848225  91.0014439
  53.0729151  75.5874109  91.1412811  51.4920902  74.7357559  91.2245369
  51.3684416  73.4798241  87.4489021  51.2124920  72.5876808  86.6306782
  52.0124865  74.6409988  87.1945190  51.9485140  75.3552246  87.9057789
  52.1286535  75.2874422  85.8519173  51.0843039  75.4427624  85.5811691
  52.5308132  76.2947559  85.9600639  52.7695036  74.5108891  84.7312355
  52.2718477  74.6659613  83.5717583  53.8381290  73.6921787  84.8825550
  54.4068336  73.8086033  85.7090664  54.2896795  72.8165531  83.8003159
  54.4713163  73.5154581  82.9838371  55.7222033  72.3161983  84.0879726
  55.7568121  71.8019629  85.0484276  56.0397100  71.6802025  83.2616520
  56.3742590  73.1856823  84.0047932  53.3874559  71.5562248  83.5107613
  53.1173849  71.2738705  82.3529434  52.8398180  70.9479904  84.6177483
  53.0491590  71.3218260  85.5323696  51.7770767  69.9257898  84.5556641
  52.1826458  69.1055346  83.9633846  51.3172150  69.3154192  85.8941650
  52.1637917  68.8878298  86.4313507  50.8232450  69.9414110  86.6372871
  50.3516054  68.1289148  85.6830215  49.5502090  68.5292673  85.0620747
  50.8988190  66.9561386  84.8872948  50.1506901  66.1634207  84.8856640
  51.0265732  67.2146225  83.8361168  51.7765379  66.5924978  85.4215908
  49.8587894  67.5355005  86.9924068  50.5735636  66.8085241  87.3780251
  49.5658302  68.2883883  87.7241421  48.8961887  67.0569944  86.8120289
  50.5899525  70.4541922  83.7655067  50.2992582  69.9666500  82.7230167
  50.0261784  71.5219450  84.3110943  50.2605534  71.7139626  85.2745724
  49.0026331  72.3452425  83.7082958  48.1853485  71.6241360  83.6961365
  48.7614679  73.5991812  84.4688511  48.7326527  73.2558346  85.5029678
  49.6559048  74.1824150  84.2499638  47.5109196  74.3235159  83.9845085
  47.4453259  74.3350601  82.8965473  46.6615582  73.7592602  84.3696213
  47.4795723  75.7168007  84.5566940  47.3619223  76.6660070  83.7681007
  47.6904154  75.9433699  85.8376980  47.7538776  76.9295263  86.0464382
  47.7883577  75.1544094  86.4606380  49.3255949  72.6123190  82.2156525
  48.4747124  72.3919725  81.3537979  50.5165958  73.1018877  81.8667316
  51.2262058  73.3457613  82.5428104  50.7190609  73.5255957  80.4910183
  50.0625372  74.3659782  80.2655315  52.1646976  74.0161705  80.1901150
  52.4247169  74.7986555  80.9030056  52.8408194  73.1619310  80.2253819
  52.3788023  74.6952248  78.8135386  52.4431705  76.1581755  78.7392426
  52.4755144  76.6434002  79.7035646  52.3409843  76.8056917  77.5169754
  52.3298740  77.8785849  77.3937893  52.2424078  76.0261583  76.3092232
  52.1405697  76.5415859  75.3656244  52.4643326  74.6365356  76.3484287
  52.4602461  74.0846825  75.4200792  52.4589157  73.9619064  77.6049614
  52.5014782  72.8834581  77.6442909  50.3814936  72.3914051  79.5263910
  49.5762968  72.5519276  78.5753536  50.9169245  71.1948633  79.7588396
  51.4683151  70.9967041  80.5815220  50.7290697  70.0284719  78.9386797
  50.9854650  70.2109528  77.8950977  51.6997147  68.9919662  79.4381285
  52.7486324  69.2777824  79.5168352  51.2387753  68.6645746  80.3700352
  51.6675949  68.2095194  78.6799431  49.3008518  69.4645119  78.9256191
  48.7047529  69.3000460  77.8446341  48.6566162  69.3840122  80.0957584
  49.2519855  69.6812296  80.8555603  47.1963120  69.1942739  80.2529526
  46.9733810  68.1909800  79.8899078  46.8451166  69.2238998  81.7628670
  46.8771219  70.2247143  82.1935081  45.3606987  68.7853289  82.0463562
  45.1524925  68.1830072  82.9306412  44.7288609  69.6730471  82.0752335
  45.0877285  68.0362320  81.3030910  47.5598812  68.2730770  82.5135040
  48.5078716  68.4085703  82.4459839  46.3437271  70.1840019  79.4344664
  45.4886580  69.7405052  78.7130022  46.6404819  71.4450598  79.4484949
  47.3745823  71.6819048  80.1004887  45.9754562  72.5063658  78.6757183
  44.8940659  72.5864840  78.7865305  46.5307093  73.9162874  79.0113354
  47.6096010  73.8508034  79.1520548  46.2718391  74.5608616  78.1713247
  45.8374405  74.5389175  80.2558804  44.7573233  74.5924568  80.1195526
  46.0523510  73.9497519  81.1473942  46.2867451  76.0433245  80.4988575
  47.2875929  76.1744165  80.9102154  46.3230944  76.5226555  79.5205832
  45.2058220  76.5996361  81.4340019  44.1841602  76.5499783  81.0573959
  45.2029228  76.1126566  82.4091625  45.5779076  77.9217434  81.9153023
  44.8797178  78.3974504  82.4687767  46.4317465  77.8058529  82.4422169
  45.7954264  78.5852194  81.1855125  46.1408138  72.2765684  77.2149324
  45.1772118  72.2588301  76.4954901  47.3391581  72.0164585  76.6699839
  48.1821918  72.0521021  77.2250748  47.5763178  71.5034771  75.3092146
  47.4682045  72.4280977  74.7422218  49.0201950  71.0834503  74.9731874
  49.5498800  72.0358706  74.9940348  49.4088125  70.4659128  75.7829523
  49.2295313  70.2913952  73.6996126  48.9212084  69.2585373  73.8616228
  48.6077881  70.7568264  72.9348183  50.6970024  70.3931618  73.1588554
  51.5337038  71.2166357  73.5308409  51.0659313  69.5682573  72.2125244
  51.9902706  69.8041582  71.8807888  50.4420710  68.9241552  71.7477322
  46.5911818  70.3927803  74.8567247  46.0522127  70.5520344  73.7429476
  46.4063597  69.3445492  75.6387520  46.8919945  69.2461681  76.5188551
  45.5973244  68.1340170  75.2749920  46.0318851  67.6827192  74.3830347
  45.6055832  67.1392584  76.4514971  44.9785757  67.6033592  77.2127962
  44.9625826  66.2995148  76.1878920  46.8332052  66.5298653  77.0351744
  47.5012922  67.2563267  77.4977970  46.3953638  65.6811285  78.2874727
  47.3234510  65.3615189  78.7614012  45.7996225  66.2755919  78.9801550
  45.8465242  64.7733164  78.0369711  47.6242399  65.6942654  76.0653877
  48.0074501  66.2662220  75.2203321  48.5640907  65.3086996  76.4605141
  47.0411205  64.8345661  75.7352495  44.1541958  68.5486364  75.0357771
  43.5320902  68.1316662  74.0514708  43.5737276  69.5421600  75.8334160
  44.0798616  69.9743319  76.5931320  42.1494246  70.0611305  75.7143831
  41.5228510  69.1814470  75.5672073  41.6524696  70.8032227  76.9166851
  40.5785942  70.9594679  76.8143463  42.0266247  70.1331854  77.6907444
  42.2479773  72.1111679  76.9744968  43.2031965  72.1797180  77.0412636
  42.0426559  70.8677387  74.3959808  40.9815121  70.8882046  73.7914801
  43.0999422  71.5647602  73.8563681  43.9716482  71.3828802  74.3329763
  43.2097721  72.1511841  72.4506569  42.3051262  72.6705170  72.1344185
  44.3144989  73.2336092  72.3553038  44.2983627  73.8755465  73.2360744
  45.2609110  72.6967430  72.4199343  44.1832256  74.0997553  71.0598660
  44.4328117  73.5025263  70.1828718  43.1586599  74.4638109  71.1362028
  45.0982904  75.3294706  71.1204100  44.9157810  75.7612848  72.1044445
  46.1222172  74.9943733  70.9549093  44.7178268  76.2763929  70.0606680
  44.3017387  77.1725655  70.2700567  44.6158552  75.9876823  68.7865210
  45.2467299  74.9372101  68.3023691  46.1438656  74.7845697  68.7404871
  45.1669598  74.7871685  67.3067665  43.8119507  76.5883207  67.9068136
  43.2756138  77.3950815  68.1924343  43.9541197  76.2918186  66.9518423
  43.4829044  71.0657930  71.3880539  42.9729986  71.2590837  70.2950335
  44.1598129  69.9568987  71.6026020  44.4442797  69.8253298  72.5627422
  44.8474169  69.1998005  70.5609131  44.6761703  69.7645473  69.6444893
  46.3468027  69.1995192  70.6889200  46.7312813  68.5251236  69.9237633
  46.9015837  70.5447006  70.2346945  46.6944075  71.1719942  71.1016846
  47.9852200  70.4670858  70.1463223  46.4719534  70.8456135  69.2792034
  46.8784285  68.7706661  71.8403864  46.6118240  69.2067862  72.6529884
  44.1883993  67.8565979  70.3135967  44.2647600  67.3637438  69.1673708
  43.4386921  67.2870016  71.1971664  43.2974577  67.6799583  72.1168041
  42.7767611  65.9824800  70.9927845  43.3045959  65.4232502  70.2202845
  42.8902102  65.1503849  72.2689009  42.3351622  65.6981087  73.0304909
  42.3402262  64.2287540  72.0785999  44.2675686  64.7207689  72.7512360
  44.9637604  65.5227041  72.9968500  44.1182804  63.9983845  74.1072178
  43.5497618  64.5795012  74.8332977  43.5464287  63.0766630  73.9998388
  45.0755882  63.6303473  74.4762897  44.8559570  63.7213373  71.7666531
  45.8104420  63.3293962  72.1180105  44.1739750  62.9356813  71.4414549
  45.1253271  64.2376328  70.8452511  41.2992859  66.1359930  70.5589771
  40.6318998  65.1587009  70.2217054  40.6631517  67.2853518  70.7020712
  41.2644482  68.0919075  70.7915926  39.1812944  67.4788284  70.7467604
  38.8200521  66.9300890  71.6165257  38.9875221  69.0274572  71.0575628
  37.9259109  69.2327309  71.1952066  39.5456481  69.1460323  71.9862938
  39.5912766  69.7769547  70.0526094  39.5745111  70.7199860  70.2315378
  38.3964753  67.0329905  69.4783640  37.2072673  66.8077469  69.6364498
  38.9762807  66.8975544  68.2918692  39.9709988  67.0717239  68.2744789
  38.3142066  66.4921570  67.0581293  37.2795844  66.2098932  67.2530317
  38.2831192  67.7126122  66.1467028  37.8347063  67.4530602  65.1877165
  37.6903629  68.5254717  66.5662193  39.6809077  68.3458376  65.8693075
  39.9564147  68.8057470  66.8183517  40.4249477  67.6580858  65.4674387
  39.4318604  69.4751787  64.8726130  40.3327751  69.7791004  64.3396187
  38.6800551  69.1856575  64.1383982  38.8653088  70.6508398  65.4548502
  38.6309648  70.5339146  66.4303064  38.3756089  71.7386627  64.8756504
  38.3978987  71.8779993  63.6298275  38.7101865  71.1562252  62.9960871
  38.0146980  72.7757597  63.3704519  37.9589653  72.7353668  65.5351400
  37.9485631  72.6899958  66.5440702  37.6988292  73.5898685  65.0637007
  38.8747716  65.2478600  66.3678694  38.4619880  65.0697231  65.2080584
  39.6912670  64.4641972  67.0414066  39.9061537  64.6318913  68.0139303
  40.3505707  63.2994556  66.4573860  40.8718634  63.6140013  65.5532742
  41.4025021  62.8631687  67.5037384  40.8511925  62.5653648  68.3956289
  42.0618868  62.1057606  67.0798826  42.1638775  63.5937309  67.7770233
  39.5358467  62.0420456  66.0230303  38.5119510  61.7536688  66.6431618
  40.0331163  61.3024664  65.0684643  40.7570124  61.7645645  64.5369196
  39.6164608  59.9601984  64.6561050  38.7166166  59.6398687  65.1812506
  39.2933035  59.9026823  63.1974602  38.7970591  58.9860535  62.8786564
  38.3086038  60.9707737  62.8215313  37.9940152  61.0982037  61.7857265
  37.3819041  60.7185984  63.3370352  38.6866832  61.9239092  63.1912422
  40.3757572  60.2111959  62.3658085  40.9698391  59.4571209  62.3718452
  40.7556725  58.9194679  64.8952961  41.8978882  59.2542982  64.6509647
  40.4237843  57.6210403  65.1505280  39.0659547  57.1318293  65.4517746
  38.2678771  57.3306561  64.7364807  38.7613392  57.5231791  66.4224195
  39.2621922  55.6457710  65.6945610  39.1452909  55.1467943  64.7325516
  38.5522366  55.2982998  66.4451122  40.6789160  55.6348181  66.2666941
  41.1782742  54.6723080  66.1556959  40.5940294  56.0301399  67.2789240
  41.4362001  56.6138792  65.3718042  42.1880388  57.0515871  66.0285044
  41.9586754  55.9398127  64.1243505  41.2609386  55.4606152  63.1750631
  43.3239460  55.6178331  64.2182732  43.7250900  55.7834959  65.1302719
  44.0023613  54.7386599  63.2752466  43.8083458  55.1883411  62.3014688
  45.5522966  54.7020960  63.6191225  45.7056141  54.8116636  64.6927118
  46.2274694  53.3295250  63.3429861  47.3077822  53.3161592  63.4873962
  45.6804132  52.5349474  63.8504124  46.1444521  53.1276274  62.2750616
  46.2556171  55.9103775  62.9980993  45.5665731  56.7418289  63.1464195
  47.2027493  56.0827494  63.5093117  46.4270401  55.7128286  61.4941454
  47.0066881  56.5848064  61.1912155  47.1039534  54.9089909  61.2047672
  45.5184555  55.6183529  60.8994675  43.4819269  53.2863379  63.3908749
  43.3220863  52.9119825  64.5364714  43.3955002  52.4575377  62.2832108
  43.3988953  52.9720783  60.9134150  44.3341970  52.8256321  60.3731680
  42.9638243  53.9713192  60.9318399  42.3521090  52.0104313  60.1944494
  42.8141689  51.7597675  59.2395830  41.4047384  52.5237989  60.0300360
  42.1914339  50.7854223  61.1033726  42.4688768  49.8384714  60.6403303
  41.1513948  50.7558107  61.4282465  43.0756426  51.0251284  62.2945213
  42.5327253  50.7806253  63.2075167  44.3659353  50.1892519  62.3882198
  45.1451397  50.2100277  61.4089251  44.6260405  49.5067835  63.5755205
  44.0111637  49.6408939  64.3654776  45.7322454  48.5964108  63.7406492
  46.0682583  48.2559872  62.7612066  46.9662762  49.2238808  64.5071173
  47.3454905  50.0628233  63.9236164  46.6599369  49.6231508  65.4739904
  48.0997276  48.2257175  64.7749853  48.9040422  48.7867928  65.2507782
  47.8285265  47.3204374  65.3181410  48.7180996  47.8612709  63.4154367
  48.1072521  46.9090700  62.8216934  49.7144222  48.4815216  62.9717159
  45.1112509  47.4345493  64.4354630  44.7742081  47.5069809  65.6307650
  45.0275326  46.2743711  63.6908007  45.6154823  46.2881899  62.8696871
  44.6309662  44.9970722  64.2459011  44.2364359  45.1731110  65.2466297
  43.6983490  44.2583704  63.3449650  44.2368841  44.1484213  62.4036932
  43.4987831  43.2750177  63.7707376  42.4020958  44.9262667  62.9852200
  41.3357067  45.0515604  63.8632441  41.4390135  44.5312834  64.8040104
  40.1525116  45.7610083  63.6299992  39.3350315  45.8303022  64.3323755
  40.0803185  46.5161753  62.4334002  38.9024234  47.1911573  62.1544075
  38.6496234  47.0227957  61.2437201  41.1655426  46.5263939  61.5871906
  41.1530542  47.2974110  60.8310318  42.3679018  45.7744265  61.8380880
  43.2618189  45.8693266  61.2395096  45.8410978  44.0235138  64.4913435
  45.6211185  42.8387070  64.8712540  47.0712471  44.4194794  64.1600990
  47.3118067  45.3260756  63.7855148  48.2533216  43.5346699  64.1260576
  47.8437376  42.6433659  64.6013641  48.7109613  43.2979298  62.6773214
  48.8771152  44.2907381  62.2592020  49.6560526  42.7568340  62.6312876
  47.7499056  42.5077057  61.7937994  46.7370701  42.9030848  61.8709230
  48.2300234  42.5551987  60.3124905  49.1961002  42.0534563  60.2572870
  47.4456024  42.1772099  59.6568203  48.3435583  43.5587311  59.9024439
  47.7636862  41.0690928  62.1583128  47.5015593  41.0390139  63.2158995
  47.0772076  40.4652691  61.5648079  48.7582779  40.6373215  62.0466709
  49.4886541  43.9772081  64.9330759  49.8110723  45.1248026  65.0605631
  50.2885437  42.9448318  65.3395224  49.9253654  42.0369911  65.0865030
  51.6732311  43.1946945  65.7219696  51.6243553  44.1609907  66.2239456
  52.1684933  42.2037601  66.7786741  53.1744146  42.4843645  67.0908928
  51.5980148  42.3901892  67.6885653  52.1619225  40.6592894  66.3554573
  51.1640358  40.3595066  66.0353756  52.8566074  40.4619265  65.5390263
  52.6632261  39.7754622  67.5562191  53.5931826  40.2443838  67.8777742
  51.8822575  39.7522926  68.3162451  52.9962730  38.3517456  67.0205498
  52.0774126  38.0095196  66.5444469  53.8077879  38.3912754  66.2939167
  53.3159637  37.3966336  68.1377554  52.5219440  37.0827794  68.6773157
  53.6410618  36.4989614  67.8082180  54.0301037  37.7539563  68.7561607
  52.5760031  43.2227468  64.5295763  52.3316145  42.5099230  63.5926867
  53.5897779  44.1094589  64.5008516  53.6645079  44.7639656  65.2664518
  54.4526386  44.3189192  63.3361149  53.8723946  44.3848610  62.4157476
  55.0013399  45.7785463  63.5475492  54.2543602  46.4683628  63.9403248
  55.8182144  45.7960463  64.2690134  55.5313206  46.2182045  62.2173071
  55.8652925  47.2370291  62.4136639  56.4007378  45.7017612  61.8104887
  54.5881844  46.4662790  61.0380077  53.4046412  46.2343597  61.0883236
  55.0508642  46.8043470  59.8718309  54.3892479  46.9821930  59.1297150
  56.0110664  47.1175575  59.8752785  55.5099630  43.1726551  63.1544733
  55.7706833  42.7626133  62.0385265  56.2249851  42.7953911  64.1714478
  56.1362028  43.3040953  65.0394630  57.1207714  41.5848255  64.2603636
  57.9524231  41.9360542  63.6495543  57.7348518  41.3649130  65.6866360
  58.2276344  42.2456551  66.0984087  56.6930389  40.9992599  66.7966175
  57.1382427  41.1033821  67.7860832  55.8741140  41.7183971  66.8139410
  56.2673187  40.0083017  66.6389227  58.6669493  40.1443052  65.6685734
  57.9551125  39.3232083  65.5837965  59.2565584  40.2016735  64.7535992
  59.5159864  39.9492335  66.9430923  58.8470316  39.6484303  67.7493906
  60.2505159  39.1921639  66.6684771  59.9564743  40.8984423  67.2481680
  56.3246107  40.3519154  63.6669922  55.2755785  39.9291468  64.2687607
  56.8834877  39.6751761  62.6645041  58.0561161  40.1168203  61.9034576
  59.0300512  39.8897743  62.3370504  58.0231667  41.1616707  61.5947390
  57.9228354  39.3908811  60.5801201  58.9140415  39.2190146  60.1605129
  57.2571659  39.8813248  59.8698807  57.2923040  38.0962253  61.0216522
  58.1244659  37.4889970  61.3778591  56.7292452  37.6800179  60.1862907
  56.3326073  38.3821654  62.1293926  55.3197622  38.5225511  61.7518473
  56.4146900  37.2121167  63.1319094  57.1581888  37.2423863  64.1461515
  55.5994034  36.1616302  62.9527426  54.9526978  36.2852478  62.1868420
  55.3164911  35.1874900  64.0563583  55.3050756  35.6882000  65.0244808
  53.8962507  34.6092153  63.8501978  53.7480450  34.4415617  62.7834129
  53.6387444  33.6394334  64.2760038  52.8731298  35.6261277  64.4231319
  52.6473713  35.7149029  65.5824518  52.3162556  36.4619088  63.6064768
  51.7251635  37.1617436  64.0318537  52.6236057  36.4349627  62.6447582
  56.4193869  34.1892481  64.1346407  56.6979361  33.5751009  65.1347637
  57.1193600  34.0108156  63.0277538  56.8524313  34.5311213  62.2042656
  58.3033752  33.1088758  62.9463625  58.1014729  32.1037030  63.3164454
  58.7823057  33.0605316  61.4763403  59.6122456  32.3554516  61.4299154
  58.0463314  32.6969361  60.7592344  59.2879915  34.2649984  60.9000540
  58.7983990  34.3665338  60.0805473  59.4788504  33.5131717  63.8190174
  60.0659847  32.6945138  64.4799089  59.7612667  34.8063397  63.7960815
  59.2000628  35.3781629  63.1811285  60.8960962  35.4102540  64.5279217
  61.7972136  35.1933622  63.9542913  60.8311224  36.9431949  64.4854069
  59.9285030  37.3247981  64.9626446  61.6452789  37.4078250  65.0416183
  60.7657194  37.3986650  62.7625608  62.0706224  37.1892357  62.5669241
  61.1037636  34.9207282  65.9646225  60.1848555  34.9905849  66.8071079
  62.3726559  34.6994233  66.3199377  63.0937862  34.7825122  65.6176805
  62.8641605  34.3444777  67.6657629  62.0873260  34.3557072  68.4302855
  63.3562183  32.9187751  67.6154757  63.9574814  32.8631973  66.7080069
  64.3187809  32.3829722  68.6675596  64.4845915  31.3110852  68.5595274
  65.3016663  32.8494811  68.6011267  63.9237595  32.4854493  69.6782780
  62.1286440  31.9858289  67.4707079  62.0886850  31.6087437  66.4487934
  62.2853374  31.1404181  68.1406546  61.2538671  32.5220609  67.8385639
  63.9965916  35.2286553  68.2117939  64.0693474  35.2568603  69.4787550
  64.6741295  36.0059381  67.3843527  64.5474815  35.8441091  66.3954735
  65.7139635  36.9002843  67.7775717  66.5086889  36.3709116  68.3032036
  66.3481331  37.5118041  66.5210438  67.0498705  38.3244109  66.7090273
  66.8758011  36.7977834  65.8887100  65.2601051  38.0230737  65.6935215
  64.9144650  38.8057327  66.1289215  65.1999378  37.9826498  68.7807226
  64.0369701  38.3727002  68.7576771  66.1124849  38.4295750  69.5972109
  67.0652437  38.1149340  69.4816875  65.7315874  39.2967558  70.7476187
  64.8919487  39.9265862  70.4536486  65.4467392  38.7278676  71.6326761
  66.7952251  40.3736448  71.1278534  67.9366207  40.2256775  70.6886959
  66.3806009  41.3378620  71.9229317  65.3896475  41.3143063  72.1167517
  67.1551847  42.4340248  72.5160789  66.3779974  43.0694818  72.9406691
  68.0026436  41.8495607  73.6867714  68.5513973  40.9837914  73.3160782
  67.3483658  41.5368366  74.5005417  69.2781019  42.9844332  74.3774128
  67.8563643  43.3368587  71.4079905  67.1805239  44.2399740  70.8521080
  69.1416645  43.0834341  71.1153746  69.4955683  42.3191500  71.6727924
  70.0598431  43.8411188  70.2507305  70.9887791  43.2809973  70.1437616
  69.5646191  43.8519335  68.7314177  68.6535454  44.4493246  68.6971664
  70.3057241  44.3071079  68.0743933  69.2950535  42.1762323  68.0059814
  67.9650736  42.1561480  67.8808689  70.5135679  45.1893711  70.8955431
  71.1751318  45.9714270  70.1548481  70.4020214  45.2891493  72.2728395
  70.0084972  44.6012497  72.8989649  70.7974577  46.5778971  72.9404783
  70.3106737  47.3424721  72.3350334  70.3247070  46.7456579  74.3963051
  70.7312441  47.6760149  74.7928810  70.6703472  45.9012508  74.9926376
  68.5673475  46.7213774  74.6309423  72.3261547  46.7290735  72.8553772
  72.8729486  47.8467894  72.6603603  73.0547905  45.5958414  72.7973366
  72.5740290  44.7087717  72.7518797  74.5244789  45.5076504  72.4825239
  75.1265430  45.9315634  73.2862139  74.7268581  44.4369936  72.5115824
  74.9462652  46.0321903  71.0827351  75.9770155  46.7272854  71.0279131
  74.1284275  45.8915424  70.0100660  73.5287142  45.0798988  69.9690628
  74.4179821  46.3964176  68.6625814  75.5073977  46.4252329  68.6837673
  73.9442492  45.4095078  67.6300383  74.4686079  44.4777203  67.8419971
  72.8605461  45.3242779  67.7101755  74.2393494  45.9043407  66.2240744
  75.3568983  45.5859566  65.5903339  76.1587477  44.9062824  65.8382797
  75.3696012  46.2855005  64.4314241  76.1118793  46.2725878  63.7466192
  74.2690277  47.0370579  64.1972542  73.8736677  47.8470516  63.0633259
  74.4175911  47.9527617  62.1363020  72.6643753  48.5890961  63.2615280
  72.3252535  49.2190790  62.4525023  71.8636465  48.3874512  64.4498682
  70.9244537  48.9000034  64.5968914  72.3300743  47.5829601  65.5074787
  71.7004967  47.4837160  66.3793707  73.5516834  46.8470621  65.3962469
  73.8037634  47.7670050  68.4482050  74.4565439  48.6678886  67.9271793
  72.5874043  48.0372286  68.8348198  72.0363045  47.2428036  69.1268349
  71.9159842  49.3263435  68.7915707  71.9226265  49.6086073  67.7387714
  70.4737949  49.3700075  69.2675209  70.5770397  49.2571068  70.3467321
  70.1939583  50.4066038  69.0797281  69.4362783  48.4087944  68.7855768
  69.7819424  47.4954844  68.3013439  68.4464741  48.1105900  69.9015284
  67.6976347  48.8744402  70.1109695  67.9548693  47.1594715  69.6970749
  68.9915657  47.7459574  70.7721710  68.6340952  49.0588045  67.6729250
  68.0608034  49.8863411  68.0908012  69.3307638  49.5421791  66.9880104
  67.9897022  48.3370113  67.1710587  72.7462912  50.4001951  69.6013498
  73.0291510  51.5104437  68.9853048  73.1821823  50.0525284  70.8246708
  72.8588867  49.1570663  71.1619043  73.8453197  51.0652208  71.6848183
  73.1791830  51.9243431  71.7640495  74.3445206  50.6743336  73.1113005
  74.9115038  49.7442055  73.0726433  75.1208115  51.6368532  73.9925241
  74.5196867  52.5301266  74.1622400  75.2055836  51.1774874  74.9773598
  76.0491800  51.7047787  73.4254074  73.1986523  50.4068804  73.8733530
  72.8115273  49.5741606  73.5935068  75.0280523  51.7433834  70.9599495
  75.1576185  52.9609776  70.7097960  75.9794712  50.9075212  70.4792309
  75.7977581  49.9164677  70.5491590  77.2506714  51.3013506  69.8229599
  77.6849461  52.0166731  70.5214024  78.1717157  50.0746679  69.5528460
  77.9352522  49.3545437  70.3361797  77.9991817  49.5669317  68.6038780
  79.6338129  50.4047203  69.4602346  79.6650124  51.2120485  68.7285566
  79.9283075  50.8347464  70.4175520  80.5638218  49.2610168  68.9932775
  80.6878567  48.4765673  69.7398424  80.0270653  48.6878872  68.2372952
  81.8664837  49.8106766  68.4243202  81.7257977  50.6646347  67.7617025
  82.5783443  50.0785017  69.2050982  82.5581741  48.8418531  67.5734854
  81.9677162  48.6364412  66.7802095  83.4824657  49.0886736  67.2496510
  82.7660561  47.9995060  68.0905342  76.8508339  52.0612097  68.5432148
  77.4636316  53.1022501  68.2259941  75.7868814  51.6183615  67.8152227
  75.3441668  50.7462740  68.0673313  75.2164698  52.2518778  66.5291166
  76.0101652  52.3489857  65.7883644  74.1236401  51.3990498  65.9383965
  73.5266638  50.8753014  66.6849995  73.1570578  51.9808197  64.8596191
  73.5427094  52.8785181  64.3763924  72.8212309  51.2690020  64.1055393
  72.2290325  52.4020004  65.2462387  74.8052311  50.4283810  65.1972580
  74.3045616  49.6178198  65.3152466  74.7164917  53.7108946  66.7775583
  74.8976707  54.6105146  65.9755993  74.1771173  54.0003490  67.9863453
  73.9376116  53.2979012  68.6714077  73.9898348  55.4452372  68.4318590
  73.5094070  56.0575628  67.6687384  72.9973936  55.4035139  69.5065022
  73.4297228  54.7690010  70.2801847  72.6540661  56.8292999  70.1524878
  72.3125887  57.5857544  69.4458961  71.8287754  56.7658854  70.8616924
  73.5723972  57.1284294  70.6577492  71.6591501  54.7869015  69.2291737
  71.1079216  54.8417139  70.1679182  71.1139774  55.2727318  68.4199381
  71.7014885  53.7102604  69.0644121  75.2514458  56.2312889  68.7660360
  75.4762077  57.3247099  68.2987690  76.1824846  55.6451321  69.5008469
  75.9896994  54.7282887  69.8781157  77.4040937  56.3138962  69.9987698
  77.2380161  57.2001553  70.6112003  78.1091213  55.3315306  70.8973169
  78.0483341  54.3389273  70.4510593  79.1479349  55.6571531  70.9514666
  77.5948524  55.2501011  72.3995638  77.9259634  56.1188126  72.9686069
  76.5164852  55.1119566  72.3212433  78.0563116  53.9352560  73.0706596
  77.6529837  53.0859470  72.5192022  79.1432858  53.8849449  73.1343222
  77.4187708  53.8716555  74.4162464  76.3553810  54.0814447  74.3009424
  77.5554180  52.9156923  74.9217749  77.9270935  54.9285126  75.3011084
  77.1586370  55.3378105  75.8130312  78.4067440  54.4881821  76.0732174
  78.4494686  55.6522131  74.8283720  78.2458973  56.9055367  68.8566589
  78.6612749  58.0407047  68.8854551  78.3113623  56.1478710  67.7984858
  77.9846001  55.1927137  67.8301477  78.9622974  56.4214945  66.5035868
  79.9914360  56.7735386  66.5745735  78.8579845  55.1362753  65.5916595
  79.5097256  54.3812466  66.0312796  77.8412867  54.7502375  65.6651402
  79.1320705  55.3339529  64.0737867  79.1121435  54.4046831  63.5044336
  78.4664869  56.0973454  63.6708879  80.5483437  55.8809996  63.8745451
  80.5964088  56.7052126  62.9525232  81.5544796  55.3182316  64.4639874
  78.2394934  57.5826931  65.8065510  78.8664198  58.4915113  65.2348423
  76.8998051  57.4021578  65.7876062  76.4663315  56.7281723  66.4023781
  76.0780239  58.4255743  65.1192999  76.4654779  58.6969328  64.1372919
  74.6834469  57.8911638  64.8715162  74.2891836  57.6226807  65.8516026
  73.7143850  58.8524008  64.2093086  72.7485132  58.3549356  64.2971373
  73.7298393  59.7783613  64.7841740  74.0188313  58.9417315  63.1665087
  74.7578621  56.7852449  64.0266132  74.8910999  55.9976196  64.5590544
  76.1604929  59.7659826  65.8980131  76.0008144  60.7977200  65.2841759
  76.4823532  59.7667551  67.2145367  76.6329002  58.8222551  67.5391293
  76.7598152  60.8982897  68.1474733  76.1037111  61.7193222  67.8584385
  76.6415691  60.5144167  69.6190023  77.4783945  59.8594999  69.8617220
  76.6436863  61.6669798  70.5965281  75.7150364  62.2324991  70.5197334
  76.7748499  61.2742853  71.6048384  77.5524759  62.2634459  70.5163240
  75.4259968  59.7747660  69.7481155  75.5120564  58.9680099  69.2349482
  78.1364822  61.5292978  67.9825020  78.2412291  62.7126217  67.6695919
  79.1963673  60.6732464  67.9267979  79.0027666  59.7026920  68.1284237
  80.5856895  61.0111427  67.7936840  80.7308674  61.8292093  67.0881367
  80.9375191  61.4561749  69.2069674  80.3751469  62.3788548  69.3501616
  80.6295586  60.7933378  70.0156212  82.4776745  61.7559814  69.3282652
  83.0738735  60.9538794  68.8932085  82.7974224  62.5782299  68.6881304
  83.0362034  61.9524622  70.7176018  82.4860191  62.8064394  71.1127138
  82.9386806  60.9716988  71.1831045  84.4541454  62.2563219  70.8053589
  85.0685120  61.6703033  70.2583265  84.9511051  63.2718420  71.4516926
  84.3890476  64.3133307  72.0140982  83.3850384  64.3649292  72.1110535
  85.0403786  65.0460243  72.2570562  86.2678051  63.3899593  71.5097570
  86.8671989  62.6416111  71.1922646  86.6367245  64.2852783  71.7967987
  81.4113045  59.8117113  67.2889757  81.2476826  58.6766529  67.8139496
  82.2229385  59.9828148  66.2048054  82.2028160  60.9116745  65.8086777
  82.5817680  58.7746334  65.3785753  81.6584206  58.1965637  65.3416252
  83.0487156  59.1001368  63.9528894  82.3405933  59.8335361  63.5671616
  84.4822788  59.6930885  64.0063143  84.5543289  60.5309677  64.6997690
  85.2041054  58.9048862  64.2203569  84.5921993  60.0537968  62.9836178
  83.0121136  57.9330778  63.0648756  82.1828270  57.4510002  63.1034517
  83.7048340  57.9514074  66.0895586  84.4965935  58.4430695  66.9014835
  83.7886524  56.6759777  65.6941128  83.0652332  56.2496328  65.1328707
  84.7627735  55.6680775  66.2717056  84.5151997  54.7122717  65.8099222
  86.1388111  56.0089064  65.7853746  86.1146545  56.1654854  64.7069550
  86.4612579  56.9265842  66.2773132  87.2244453  54.9360180  66.1405563
  88.2183552  55.2771425  65.8509254  87.3536873  54.8528910  67.2196722
  86.8634605  53.5582685  65.4652262  86.1113358  52.7585506  66.0943556
  87.4192810  53.2607889  64.3508959  84.5801163  55.5170774  67.8105068
  85.5649090  55.7221603  68.5674477  83.3552837  55.1380682  68.3090591
  82.1597385  54.7884130  67.5076103  82.4087429  54.1090059  66.6924381
  81.7107487  55.7115746  67.1411657  81.1194706  54.1980982  68.4192753
  81.1529922  53.1089115  68.4449720  80.1096630  54.4864559  68.1273174
  81.5293312  54.7260809  69.7941971  81.2024117  54.0681982  70.5994463
  81.0324764  55.6772900  69.9850655  83.0603600  54.9033880  69.7188091
  83.3291245  55.7449389  70.3572893  83.6930656  53.6307049  70.1726103
  83.7786961  52.6826525  69.3909407  84.1598320  53.6036348  71.4614630
  84.0208149  54.4669342  71.9669247  84.7581482  52.4430037  72.1819019
  85.2439117  51.8647003  71.3959646  85.8622169  52.9621267  73.0905104
  85.3636074  53.6361980  73.7870169  86.3868332  51.6820717  73.8549280
  85.5933189  51.2173605  74.4401455  86.7563915  50.9779406  73.1094599
  87.1607304  52.0013094  74.5529747  87.0607090  53.7081957  72.4522781
  87.5965500  53.0098581  71.8093967  86.6626453  54.5085382  71.8284988
  88.0680466  54.3155479  73.4997416  88.9926815  54.5297098  72.9637480
  87.6673412  55.2584887  73.8717508  88.2356739  53.6292171  74.3297768
  83.6179543  51.4648104  72.6924324  82.7240658  51.8843985  73.4011030
  83.6949062  50.2074099  72.3148251  84.4413376  49.9681664  71.6778755
  82.7827930  49.1342497  72.7071714  81.7615032  49.4936562  72.5811005
  83.0677032  48.1393385  71.5587664  83.0551910  48.6255789  70.5833101
  84.0858459  47.7551222  71.6209126  81.9886398  47.1176291  71.5192795
  80.9155083  47.2471905  72.0740271  82.3166847  45.9876728  70.9615755
  81.6076374  45.2701950  71.0123444  83.2579041  45.7676220  70.6686544
  83.0101490  48.6212826  74.1509914  84.0616417  48.7730122  74.7337866
  81.9134045  48.0438662  74.6733475  81.1993980  47.9228306  73.9693308
  81.8362236  47.2887516  75.9015036  82.6561165  46.5776110  75.8006573
  81.9837761  48.2954884  77.1210146  82.9697990  48.7589312  77.0879936
  81.0340595  49.5219612  77.0463419  81.2175655  50.1207495  76.1542225
  80.0007439  49.1750431  77.0486784  81.2313461  50.1980543  77.8782558
  81.7075634  47.6570940  78.3828878  82.5084496  47.1574068  78.5575485
  80.5112648  46.5574074  75.8514071  79.7335911  46.7377090  74.9619007
  80.1627445  45.7284117  76.8766308  80.6861496  45.7889271  77.7383089
  78.7659788  45.2945375  77.0783424  78.5345650  44.7116375  76.1868429
  78.6910105  44.4403887  78.3090544  78.9175606  45.0609684  79.1760397
  77.3761177  43.6354303  78.5663366  77.0105124  43.1240177  77.6758957
  77.5342083  42.9655695  79.4115591  76.6225958  44.3313026  78.9352083
  79.7571087  43.5088730  78.3440208  79.6031523  42.7842808  77.7333975
  77.7195692  46.5088558  77.1324492  77.9894018  47.4873924  77.8142309
  76.5598154  46.2639618  76.5711880  76.5484810  45.5042505  75.9057474
  75.4739428  47.2555017  76.8358326  75.6541777  47.7906084  77.7681780
  75.3698730  48.3162212  75.7168770  74.8232937  47.7705574  74.9477196
  74.7472525  49.1391039  76.0680437  76.6584969  48.8922024  75.1220131
  77.3041058  49.9644279  75.8021307  76.9605160  50.3512716  76.7501259
  78.3120775  50.6378460  75.1795244  78.7288237  51.4368582  75.7747555
  78.7834454  50.1629305  73.9523602  79.8188114  50.8336258  73.4055328
  80.1429081  51.4800215  74.0369892  78.2340193  49.0648842  73.3180428
  78.8669920  48.5921526  72.5816488  77.2086048  48.3334541  73.9841461
  76.8076468  47.3931551  73.6356258  74.1216755  46.6250277  77.1722841
  73.9969587  45.3838634  77.1401358  73.1079340  47.4402618  77.5082016
  73.2549238  48.4112120  77.2720718  71.7410898  47.0910883  77.9226875
  71.3663149  46.2153959  77.3927784  71.8779278  46.7973185  79.4693708
  72.7346468  46.1466551  79.6447945  72.0339584  47.7532578  79.9693060
  70.7044506  46.3115215  80.0031471  70.3376436  45.7377815  79.3264866
  70.8459997  48.3231688  77.7332973  71.3271904  49.4536591  77.4598312
  69.5666504  48.1344080  77.9628468  69.3147087  47.1737957  78.1468248
  68.5380936  49.2546272  77.7328110  68.6427975  49.5014715  76.6763020
  67.1776199  48.6851215  77.9391384  66.9304228  47.8637362  77.2665930
  67.2217655  48.2450438  78.9353752  66.0911942  49.6959257  77.7526665
  65.5290174  49.8542690  76.5441179  65.8626413  49.2306137  75.7279301
  64.5570040  50.8002520  76.3364792  64.1175890  50.8874273  75.3537655
  64.1678381  51.6187382  77.3181915  63.1245089  52.4666929  77.1360683
  62.6305676  52.3179293  76.3264418  64.6350098  51.4818716  78.6185217
  64.2335987  51.9507027  79.5047855  65.6404877  50.5535507  78.7919521
  65.9415388  50.2541065  79.7849798  68.7096214  50.5151844  78.5385418
  68.6658239  51.6251945  78.0405903  69.2216492  50.3609657  79.8070574
  69.2924404  49.4505978  80.2387047  69.7662354  51.4556360  80.6365299
  68.9135408  52.0837641  80.8943558  70.1520681  50.9858704  82.0178699
  69.3424320  50.4567862  82.5205326  71.2691355  49.9933100  82.0876408
  72.1797228  50.2947187  81.5698719  71.4247561  49.7986650  83.1487656
  70.9282255  49.0473843  81.6667938  70.6335258  51.9989157  82.8564262
  70.0017691  52.1005058  83.5720825  70.8209705  52.3246861  79.9159098
  70.6824160  53.5782528  79.9820900  71.7606401  51.6996241  79.1816425
  71.7508173  50.6896830  79.1872406  72.7900887  52.3809814  78.4329462
  73.0891657  53.2610607  79.0022516  74.0023661  51.4516449  78.2581568
  73.8063574  50.6673479  77.5270176  74.8692656  51.9442177  77.8177452
  74.6757698  50.9535694  79.5562935  75.2177906  49.8410273  79.4833088
  74.6910048  51.6805220  80.6282330  72.3196602  53.0669832  77.1011305
  72.8166389  54.0810823  76.6598177  71.4219713  52.3044205  76.4370203
  71.1837721  51.4534903  76.9261837  70.7833147  52.5964832  75.1465130
  71.6595840  52.8578854  74.5532846  69.9060726  51.4058447  74.6677828
  70.6535912  50.6169987  74.5838881  69.2052412  51.1611795  75.4659510
  69.1652918  51.5319490  73.3052015  69.7626781  52.2314787  72.1823215
  70.7804108  52.5925970  72.1969128  69.0027523  52.4186087  71.0530472
  69.5691204  52.8459406  70.2387905  67.6401854  52.0626307  71.0056210
  67.0708847  52.4241447  70.1620531  67.1123981  51.3277912  72.1314812
  66.0625315  51.0752821  72.1110916  67.8792763  51.1112738  73.2822514
  67.3880291  50.5853367  74.0875244  69.8821926  53.8075495  75.1551151
  70.1978350  54.7814178  74.3754578  69.0141439  53.8991451  76.1319876
  68.8316059  53.1077528  76.7323971  68.3020878  55.1217604  76.4876223
  67.6256037  55.2879572  75.6492567  67.4829578  54.8817301  77.7702808
  67.1487570  53.8607550  77.5858450  68.1361198  54.9135351  78.6423254
  66.2080050  55.7536602  77.8680468  65.8601809  56.0045719  76.8659687
  65.4935265  55.0847340  78.3477879  66.3896656  57.0039320  78.6483908
  67.2884941  57.1773052  79.4956207  65.5387878  57.9843807  78.2976627
  65.7090139  58.9427900  78.5670567  64.9710035  57.7668858  77.4911785
  69.1854382  56.3470554  76.6545773  68.9094687  57.3879862  76.0596514
  70.2852678  56.2370443  77.4411774  70.4128695  55.2997208  77.7950859
  71.1749649  57.3020172  77.6911116  70.6611919  58.2294464  77.9441214
  72.1811247  56.9586802  78.8707209  72.7618217  56.0736132  78.6108351
  72.8543663  57.7998209  79.0360498  71.4392757  56.8192482  80.1787472
  70.7383060  57.6425838  80.3160858  70.8130550  55.9365177  80.0493622
  72.2527981  56.6077518  81.4740086  73.0683947  55.8871698  81.4135075
  72.7454042  57.5564575  81.6870880  71.3235140  56.3588715  82.6648521
  71.9918966  56.4350700  83.5225010  70.4967117  57.0577717  82.7915096
  70.7220697  55.0070953  82.6036167  71.4434052  54.3518448  82.3382378
  70.3467655  54.9044800  83.5356617  69.9897289  54.9698353  81.9090748
  71.8554163  57.6667452  76.3223124  71.8556643  58.8466072  76.0351181
  72.3780918  56.7446089  75.5415630  72.2849035  55.8039474  75.8973408
  72.9041052  56.9460058  74.1546774  73.8663578  57.4497700  74.2463446
  73.1750107  55.5284643  73.5104275  72.2572660  55.0389242  73.1845474
  73.7691593  55.6677961  72.6072836  73.7310505  54.8972988  74.2036486
  71.9671011  57.9088736  73.2959270  72.3562431  59.0329695  72.9091024
  70.7253933  57.5031710  73.1293106  70.4638815  56.7171907  73.7071991
  69.5988417  58.2199478  72.5296831  69.8468637  58.2650852  71.4692354
  68.3100891  57.3799944  72.6461172  68.2760143  56.9675207  73.6544895
  66.9632721  58.1589174  72.3542881  67.1580458  58.5914326  71.3729095
  66.0413551  57.5832462  72.4366045  66.8511200  59.0029097  73.0348778
  68.4030056  56.1885166  71.7459011  68.3731508  56.5772772  70.7280207
  69.2671061  55.5264425  71.8014431  67.4313307  55.7038975  71.8412542
  69.4950294  59.6075821  73.2088327  69.3161917  60.6710434  72.5575066
  69.5672464  59.7143745  74.5385456  69.8813486  58.9498472  75.1190090
  69.4128466  61.0166550  75.2225161  68.5173655  61.5008068  74.8328781
  69.0815496  60.7129478  76.7192078  68.2573891  60.0005960  76.6815805
  69.9284506  60.3897810  77.3245382  68.4855223  61.9535589  77.3227262
  67.2954559  62.1687365  77.2675133  69.2092323  62.6445770  78.1482363
  68.7780523  63.4782887  78.5212183  70.0976610  62.2994280  78.4823990
  70.6036615  61.9425297  75.0474644  70.3984928  63.1520796  74.7684622
  71.8647337  61.4736414  75.1380682  71.9357443  60.5794477  75.6022739
  73.0707359  62.2473097  74.7579050  73.1939507  63.1441259  75.3650618
  74.3160486  61.3241291  74.8966122  74.1947746  60.3716278  74.3807316
  75.1588440  61.8088722  74.4038391  74.7242403  61.1258221  76.2972021
  73.8896704  60.6167412  76.7793083  75.5906248  60.4665375  76.3504553
  75.0612926  62.3425674  77.0736313  75.7426834  62.9128218  76.4422750
  74.2079449  62.9635572  77.3461580  75.8781910  62.0257378  78.2865000
  75.3310537  61.4687204  79.0470791  76.7532349  61.4132261  78.0691814
  76.3551521  63.1624126  79.1176224  76.7297697  62.8317261  79.9953556
  77.0018768  63.7628412  78.6263609  75.5943966  63.7859821  79.3467808
  72.9567766  62.7298689  73.2988882  73.1961966  63.9071369  73.0901098
  72.4737072  61.8685102  72.3454905  72.2259903  60.9176922  72.5793362
  72.1190882  62.2830296  70.9764624  72.9863548  62.7642298  70.5243683
  71.8426943  61.0741758  70.0934601  72.6532221  60.3732443  70.2930450
  70.9065437  60.5844021  70.3614998  71.7962599  61.3536215  68.5238838
  72.0241308  62.4062634  68.3562183  72.8880024  60.5650854  67.7132988
  73.1690598  59.5695496  68.0568171  72.5518513  60.3536510  66.6982079
  73.7355375  61.2396336  67.5917673  70.4628992  61.0029650  67.8312445
  70.1531601  59.9841452  68.0639839  69.7103214  61.5826035  68.3658028
  70.4580593  61.1263752  66.7482662  71.0823727  63.4112501  70.8436918
  71.2838554  64.3421650  70.0966692  69.9331808  63.3282804  71.5035295
  69.7728491  62.4628496  71.9989300  68.9188385  64.3158197  71.5197277
  68.6669302  64.4994497  70.4752541  67.6148367  63.8310766  72.1963310
  67.8191948  63.6355066  73.2489920  66.9514608  64.6870232  72.0722675
  66.9416189  62.6324558  71.4514017  67.6686668  61.9088078  71.0828447
  66.0279894  61.9080448  72.4713850  66.5588808  61.8179798  73.4190893
  65.0931358  62.4315500  72.6716185  65.8081675  60.9141636  72.0815277
  66.1482668  62.9840899  70.1916504  66.8627596  63.1293583  69.3814087
  65.4386711  62.2142839  69.8883867  65.5308390  63.8703012  70.3383207
  69.3670082  65.6131601  72.1353817  68.8766479  66.6579866  71.7012835
  70.2628231  65.5733156  73.1523466  70.5542469  64.6425915  73.4148932
  70.9277391  66.6907024  73.8726091  70.2315950  67.3854685  74.3424797
  71.6729641  66.1841345  75.0916767  72.3129606  65.3906870  74.7057438
  72.4604464  67.2334480  75.8707237  73.0082178  66.8542957  76.7334461
  73.1983328  67.7381897  75.2471352  71.7872000  68.0148554  76.2231970
  70.6944466  65.5158043  75.9125090  70.8987236  64.5813274  75.8311462
  71.7278147  67.5117636  72.7870131  71.7945051  68.7510490  72.9341888
  72.2892714  66.8884706  71.7407799  72.3608112  65.8986425  71.9284582
  73.0564260  67.5240898  70.6803894  73.6609221  68.2949448  71.1583710
  73.9892769  66.4475155  70.0356197  73.2716894  65.7661343  69.5785761
  74.6344900  66.8385696  69.2489338  74.5430946  65.8853149  70.7874966
  72.2874308  68.1671524  69.5504427  72.7393341  69.0960550  68.9067459
  71.0639143  67.7176523  69.2594576  70.7206011  67.0308828  69.9156523
  70.2075720  68.0515242  68.1291199  70.6613064  67.7534151  67.1839380
  68.9430809  67.1892071  68.1182241  68.4115887  67.3687744  67.1836805
  69.3302059  66.1702967  68.1108046  68.1234550  67.4265718  69.2096233
  68.5499334  67.0063353  69.9600363  69.7705460  69.5446253  67.8797626
  69.6778584  70.0524712  66.7564249  69.4932652  70.2194977  69.0066957
  69.4571638  69.8368025  69.9406862  69.0429926  71.6163015  68.9087105
  68.2116795  71.7643023  68.2194185  68.5125113  72.0645189  70.2703571
  69.3441963  71.9056702  70.9567785  68.3001328  73.1336164  70.2751923
  67.2527695  71.4647865  70.9071493  67.4863100  70.4025126  70.9788609
  66.9041014  72.1761274  72.2219467  65.9274101  71.8993711  72.6189184
  67.6579237  71.9477987  72.9754162  66.8116999  73.2479286  72.0464373
  66.1077023  71.5635633  69.9240398  66.4886236  71.0724449  69.0286112
  65.2760506  70.9515572  70.2731848  65.8906174  72.6139545  69.7300005
  70.0987864  72.6073742  68.4424734  71.3014364  72.5702000  68.8224173
  69.7044754  73.4601021  67.5792074  68.0123043  44.6482944  75.6536436
  60.7530022  71.0324955  26.1652422  60.5127907  72.0133257  26.1844468
  60.6971931  70.6619596  25.2273273  61.7026329  71.0059357  26.5081668
  59.8577213  70.2589512  27.0036793  58.8676739  70.6891012  26.8524384
  59.8191500  68.7420177  26.6689801  59.3237448  68.2922077  27.5294113
  59.1514921  68.4695387  25.3774571  58.5947990  67.5404501  25.4998612
  58.5043001  69.3053198  25.1115680  59.8502445  68.3370638  24.5514417
  61.0720444  68.1465292  26.4186764  60.9390068  67.2008467  26.5165687
  60.2463245  70.4885817  28.4685516  60.6665087  69.6424198  29.2885923
  60.1636934  71.7523813  28.9152217  59.8769951  72.4267483  28.2201457
  60.8482790  72.2255421  30.1501083  61.8993568  71.9428968  30.0913644
  60.8557987  73.6917019  30.1820683  61.5072680  74.0090418  30.9963083
  61.2776852  74.0767765  29.2537189  59.4903469  74.3330336  30.3203821
  58.7117910  74.1571951  29.4004893  59.2663431  74.9908590  31.4251518
  58.3095407  75.3006554  31.5182352  60.0424337  75.3087854  31.9879222
  60.3540850  71.5653133  31.4635348  61.1386585  71.2780285  32.3258281
  59.0704584  71.1786795  31.5582347  58.4723282  71.3613462  30.7651567
  58.5476351  70.5120325  32.7309918  59.0482759  70.8963060  33.6196923
  56.9972849  70.7008600  32.8876400  56.4911985  70.4289818  31.9613242
  56.7381001  70.0204086  33.6987543  56.6568422  72.1018505  33.2955265
  57.0366669  72.3497963  34.2866659  57.0171928  72.8824091  32.6254678
  55.1391792  72.3543358  33.2978582  54.3158340  71.6816950  32.6853633
  54.6165180  73.4610510  33.8643241  53.6985970  73.6710644  33.4990621
  55.2221870  74.1269255  34.3224502  58.9185429  69.0175962  32.8044057
  59.2418909  68.5933113  33.9104438  59.0159464  68.3341551  31.6561890
  58.7268114  68.8064957  30.8115625  59.7317648  67.0404720  31.5392566
  59.3436146  66.3641977  32.3008966  59.4476604  66.3297415  30.1506805
  59.7165155  66.8877172  29.2537498  59.9554348  65.3661108  30.1096463
  57.9708385  65.9043407  29.9901462  57.2980833  66.7619228  29.9818659
  57.6839781  65.1676893  28.6663342  56.7072630  64.6845484  28.6929512
  57.7832317  65.8694983  27.8382540  58.4312439  64.3786097  28.5823607
  57.4756479  64.8801517  31.0672808  57.5797224  65.3178215  32.0601153
  56.4293671  64.6113920  30.9217954  58.1704950  64.0417957  31.1166859
  61.2513065  67.0711708  31.8260050  61.7645454  66.2307692  32.5788546
  61.9047785  68.1677246  31.4637589  61.3458347  68.8040733  30.9135413
  63.3133793  68.3557558  31.7583442  63.8443041  67.4580669  31.4415383
  63.9036942  69.4148684  30.8434677  63.7670469  69.0610266  29.8215938
  63.2608747  70.2851534  30.9757090  65.3786421  69.7018290  31.1895561
  65.3370476  70.1181936  32.1960425  65.9413052  68.7682819  31.1899948
  65.9710836  70.7277441  30.2642512  65.3677320  71.1385393  29.2137909
  67.1429443  71.2301922  30.3856277  67.4337482  71.9240522  29.7117615
  67.6344538  70.9539938  31.2236238  63.5129786  68.4643078  33.3337069
  64.3304396  67.7802706  33.9517355  62.7134705  69.3848085  33.9127421
  62.1014690  69.9448967  33.3366704  62.6694870  69.6610594  35.3403234
  63.6594200  69.9787569  35.6677365  61.7251587  70.7966900  35.6556463
  62.0192528  71.7097902  35.1380968  60.7285881  70.6660652  35.2338862
  61.5063047  71.0765696  37.1036220  62.3523474  71.9166708  37.8227711
  63.3247566  72.2761154  37.5200844  62.1213484  72.1764803  39.1504240
  62.7798319  72.8028727  39.7338939  60.9850597  71.6001987  39.8008657
  60.7977295  71.7670298  41.1547470  59.9073076  71.6787529  41.5025425
  60.1188612  70.7594252  39.0944743  59.4242859  70.1597834  39.6640325
  60.3549671  70.5552197  37.7253294  59.7300911  69.8618650  37.1820116
  62.2736263  68.4286118  36.1027145  62.9432774  68.1650305  37.1372724
  61.3940716  67.5849485  35.5788946  60.8888912  67.8531790  34.7464609
  60.9511423  66.3113689  36.1734009  60.6215906  66.3478041  37.2117496
  59.6653795  65.7125711  35.5125570  59.0226126  66.5919209  35.5536962
  60.0340176  65.4095125  34.5325756  59.1174984  64.4526815  36.2887907
  58.5121536  63.8878107  35.5798578  59.9936104  63.8563108  36.5434885
  58.2652617  64.6017599  37.8532171  57.0467234  65.8254099  37.4551368
  56.0974312  65.6442881  37.9592562  57.4443674  66.8038607  37.7246237
  56.8806553  65.8402967  36.3779640  62.1325159  65.2887106  36.2972116
  62.3254204  64.6497536  37.3212934  62.8003073  65.1246452  35.1836443
  62.5633001  65.7723618  34.4458151  63.9547586  64.2170334  35.1006222
  63.6250067  63.2424068  35.4604483  64.4385672  64.1429663  33.6452794
  63.5839176  63.9086151  33.0106449  64.6175718  65.1941252  33.4191704
  65.7322836  63.2889700  33.2589626  65.8788586  63.3320045  32.1797204
  66.6364527  63.6845589  33.7216616  65.4894114  61.7748976  33.5306215
  65.0503588  61.4030981  34.6160197  65.7121325  60.8056402  32.6005197
  65.4569530  59.8625708  32.8566623  66.1944866  61.0878420  31.7592144
  65.1597404  64.6858072  35.9212828  65.5686522  64.0957594  36.8702435
  65.6137466  65.8959103  35.6261921  65.0958967  66.5464878  35.0528860
  66.8327379  66.5366030  36.2079954  67.6775980  65.8479023  36.2095881
  67.3536730  67.7091503  35.3237557  67.6353025  67.3105574  34.3491220
  66.5942287  68.4863329  35.2381206  68.6087370  68.3598518  35.9173346
  69.5076990  67.6501703  36.3079023  68.8269043  69.6281385  35.8037448
  69.6945524  69.9941492  36.1688852  68.2309771  70.1396036  35.1686287
  66.6073370  67.0751715  37.7085590  67.5626993  66.9483805  38.5002494
  65.4095793  67.4018621  38.1609392  64.7246170  67.6160479  37.4502730
  65.2201176  67.9532242  39.5465255  66.1991167  67.9254150  40.0249529
  64.9125481  69.4398785  39.6201301  63.9469004  69.4769812  39.1159010
  64.6822643  70.1585245  40.9661913  63.6357689  69.9561262  41.1942053
  65.4567194  69.8909950  41.6850424  64.8178959  71.2203455  40.7606745
  65.7807112  70.1523876  38.5489440  66.8380833  70.1703644  38.8130283
  65.5993986  69.7559118  37.5499249  65.5936861  71.2245131  38.4883809
  64.2634296  67.0573759  40.4169989  64.6961975  66.7242384  41.5313435
  63.0464792  66.7623138  40.0128365  62.6846886  67.1807814  39.1677952
  62.0815849  66.0437536  40.8160925  61.8837547  66.5247536  41.7740059
  60.6368065  66.0406446  40.2088213  60.6196404  65.4498577  39.2929721
  59.6930838  65.4683924  41.2657881  58.7014484  65.4331684  40.8146620
  59.9866199  64.4404173  41.4784384  59.7041416  66.1898136  42.0828152
  60.0184774  67.3934507  39.8493481  59.0661049  67.2773314  39.3320465
  59.9386835  68.1105566  40.6663513  60.8161163  67.8164434  39.2386580
  62.5004721  64.5940828  41.0505056  62.7238464  64.2349529  42.2446823
  62.6534986  63.7692308  39.9844050  62.3616600  64.0981531  39.0751529
  63.3886194  62.4507952  40.0101137  62.7907991  61.8033695  40.6516361
  63.4025526  61.7765474  38.5909653  63.8763905  62.5068521  37.9350400
  64.2143345  60.4981375  38.5576057  63.6423445  59.7701216  39.1328692
  64.2667150  60.1723671  37.5187445  65.1654959  60.5972433  39.0806460
  61.9663143  61.4857674  38.1758475  61.3458776  62.3811913  38.2128453
  61.9529438  61.1122179  37.1519399  61.4691973  60.7231474  38.7753367
  64.7685528  62.3486614  40.7274961  64.7774601  61.6037321  41.6932154
  65.7647371  63.1335211  40.4247713  65.6544542  63.6381006  39.5568228
  66.9485855  63.3893490  41.3418722  67.5114727  62.4559975  41.3526201
  67.8332043  64.4194794  40.6893492  67.9476547  64.0867281  39.6577120
  67.2524548  65.3401518  40.6327915  69.1463614  64.8423910  41.3367510
  69.5591879  64.0530109  41.9648886  69.8461485  65.1226139  40.5494261
  68.9595795  66.1036921  42.3277044  68.5094547  66.9286060  41.7754316
  68.3123970  65.7510090  43.1307459  70.3276253  66.6011858  42.9499340
  71.0695982  66.8783092  42.2010803  70.1068878  67.5485277  43.4417868
  70.8802605  65.6260777  43.8821363  71.7267847  65.8934212  44.3638229
  70.2279377  65.3492451  44.6018219  71.0932016  64.7908115  43.3557415
  66.6469526  63.7540817  42.7788639  67.2636366  63.0748367  43.6219358
  65.6530046  64.6461105  43.1349897  65.2020073  65.2744532  42.4854565
  65.5795622  64.9599981  44.5347357  66.5136051  65.2280140  45.0285339
  64.6190405  66.1420774  44.7604990  63.6918831  65.8749390  44.2534256
  64.2533302  66.3041592  46.2754488  63.8101673  67.2831821  46.4577436
  63.6098242  65.4642153  46.5371561  65.1788187  66.2795258  46.8507433
  65.1173496  67.3898315  44.2642355  64.8711872  67.3639631  43.3366919
  65.0519705  63.6775637  45.2461767  65.5562735  63.4671736  46.3199091
  64.0141869  63.0217409  44.7565556  63.5464525  63.2908535  43.9027977
  63.6291504  61.7067671  45.3441095  63.3615303  61.8661022  46.3886642
  62.5223160  61.1347675  44.5220709  63.0153561  61.0123301  43.5576963
  62.1747923  60.2035141  44.9693918  61.2920856  62.0347548  44.4555616
  61.5848732  63.0824614  44.3871069  60.4494524  61.6550255  43.2600260
  61.0553408  61.3465357  42.4080706  59.8949194  60.7590294  43.5389471
  59.8698378  62.4828434  42.8515339  60.5110598  61.6821623  45.7291126
  60.1875448  60.6418133  45.7623863  61.0634279  62.0051670  46.6115284
  59.5987606  62.2779512  45.7000208  64.6943569  60.6498337  45.2887487
  64.8387766  59.9575043  46.2432051  65.5110693  60.5130482  44.2282057
  65.1499033  60.9754229  43.4060860  66.4557648  59.4046926  44.0166521
  65.9303045  58.4731865  44.2271090  67.0349836  59.4331980  42.6258993
  66.1794138  59.5876169  41.9684362  67.6585960  60.3105354  42.4541807
  67.7365637  58.1900311  42.2242641  68.9856863  57.8528357  42.4909592
  69.7193813  58.3673668  43.0937529  69.3017244  56.7195177  41.7157555
  70.2476454  56.4190197  41.5285778  68.1871986  56.0528755  41.2663507
  67.9519510  54.8465157  40.5025578  68.7490797  54.1495991  40.2897358
  66.7789841  54.7204971  39.7597218  66.5373373  53.8442039  39.1765189
  65.7948160  55.6675482  39.9107122  64.8588514  55.5660725  39.3814969
  65.9522152  56.8051767  40.7579660  65.1641893  57.5431013  40.7876539
  67.1950912  57.1050787  41.4266682  67.6119661  59.3410778  45.0570774
  68.0577374  58.2452154  45.4544783  67.8471804  60.4789305  45.6856728
  67.3840904  61.3114882  45.3502560  68.9274979  60.6324196  46.7351580
  69.5472097  59.7370005  46.6874456  69.7241354  61.9434214  46.4940500
  69.0803003  62.8223276  46.4608669  70.2860785  62.0483732  47.4221182
  70.7608366  62.1016693  45.3506899  70.1852417  62.5376368  44.5341587
  71.4800024  62.8758335  45.6182098  71.5417004  60.8518600  44.9842739
  70.8589125  60.0734091  44.6438122  72.1953344  61.2282562  44.1973925
  72.4345112  60.2803469  46.0831404  73.0668688  61.0435104  46.5368032
  71.7548037  60.0578690  46.9056988  73.1210613  59.0216780  45.6821632
  74.0371752  58.8915110  46.0869980  72.6716280  58.1699753  45.9866571
  73.2136345  58.9809847  44.6772432  68.3982134  60.6064939  48.1019783
  69.0770435  61.0417986  49.0634441  67.2236824  60.0936890  48.3039141
  66.7463350  59.7631884  47.4774694  66.6416311  59.8020124  49.6134424
  66.9358444  60.5215311  50.3775263  65.1056767  59.9233198  49.5879793
  64.8154163  60.7974148  49.0050459  64.8260403  59.0202761  49.0453768
  64.4422340  60.0774479  50.9444284  64.1046429  59.0465879  51.8009710
  63.6041689  59.6422338  52.9092407  63.1806612  59.0601063  53.7143278
  63.4016800  60.9601259  52.7559090  62.9900599  61.5821981  53.4368658
  63.9677477  61.2373877  51.5190172  64.1124916  62.2485256  51.1682177
  66.9708633  58.3427095  50.0216579  66.8144703  57.4374962  49.1840935
  67.2200203  58.1643391  51.3141584  67.2299719  58.9758062  51.9154263
  67.5524712  56.9144440  51.9083738  68.4075212  56.5719795  51.3255310
  68.2017660  57.1938801  53.2992506  67.4669075  57.7839708  53.8468647
  68.3759069  56.2726450  53.8552189  69.5819616  57.8019714  53.3394909
  69.7969532  58.0106688  54.3874979  70.3451443  57.1261072  52.9536581
  69.8435307  59.0961838  52.5408077  69.0717316  60.0375175  52.4562168
  70.9620905  59.1647005  51.8747711  71.0796738  60.0627041  51.4277029
  71.6003704  58.4109020  52.0856810  66.3759089  55.8989668  52.0614862
  66.5930080  54.7295189  52.3453712  65.1094246  56.2034082  51.7480564
  64.9115324  57.1520615  51.4634466  64.0229368  55.2151394  51.4770508
  64.2667007  54.2584276  51.9389772  62.7171278  55.8222532  52.0989513
  62.5314093  56.7398882  51.5407848  61.9733906  55.0642538  51.8532085
  62.6566458  56.2514353  53.5779428  61.6079998  57.0678902  54.0036249
  60.8315849  57.2428989  53.2735825  61.5743160  57.6447535  55.2606249
  60.6713915  58.1846619  55.5048132  62.5164938  57.3348331  56.2223911
  62.3415852  57.5878477  57.2576618  63.5852146  56.4894390  55.8348513
  64.3630886  56.1876249  56.5205765  63.6370897  55.9480667  54.5427990
  64.4989777  55.3249884  54.3548536  63.7480021  54.9073505  50.0065804
  62.8231382  54.1545677  49.7541904  64.4542217  55.4902792  49.0625906
  65.1772165  56.0963249  49.4232702  64.2017937  55.4732227  47.6473331
  63.1123972  55.4418278  47.6291752  64.5576668  56.6903877  46.7907953
  64.2819881  56.6070080  45.7395363  64.1131163  57.5719833  47.2525883
  65.6374502  56.8380976  46.8099213  64.5640373  54.1890574  46.8293953
  63.9632702  53.9203644  45.7893085  65.3801250  53.3940983  47.5046968
  65.7620239  53.7391186  48.3737278  65.9053898  52.0817709  47.0495844
  66.4133549  52.2732306  46.1043739  66.9695520  51.5966368  47.9855013
  67.3706150  50.7138538  47.4875593  67.6950550  52.4052143  48.0746794
  66.4469004  51.0957193  49.3478441  66.2409544  51.9411850  50.3748322
  66.5633488  52.9695177  50.3041840  65.6755304  51.2872553  51.4861536
  65.5005360  51.6824961  52.3989916  65.4664278  49.9887514  51.1300802
  64.9636412  48.9189291  51.8603373  64.6835232  48.9334202  52.9032803
  64.7607517  47.7242470  51.2086725  64.4218254  46.8922997  51.8081713
  65.1799011  47.5460815  49.8846722  65.1865864  46.5760803  49.4098425
  65.6747723  48.6021471  49.1207600  66.1154556  48.4831572  48.1419659
  65.8827305  49.8582840  49.7379398  64.7786188  50.9974957  46.7103529
  65.1115608  50.2878952  45.7440996  63.5005474  50.8790255  47.2365046
  62.9709387  51.4055061  48.4712458  62.5402784  52.3613548  48.1729317
  63.7507915  51.3656569  49.2317343  61.8972683  50.4597139  48.8346100
  61.2006521  50.8867884  49.5560217  62.3145914  49.5478010  49.2616415
  61.2721872  50.1643276  47.4942350  60.7212305  51.0431147  47.1591616
  60.5156231  49.3837547  47.5743723  62.5178528  49.9910641  46.6911411
  62.8448725  48.9513063  46.6989040  62.2366524  50.2634621  45.1799011
  62.0218277  49.3760681  44.4129229  62.2730350  51.5460443  44.8234510
  62.4780607  52.2689724  45.4983139  61.8992615  52.0022249  43.5408783
  61.1459875  51.3243246  43.1394672  61.2249041  53.3689117  43.7658072
  62.0362806  54.0505934  44.0209055  60.8766794  53.7439585  42.8034258
  60.1234961  53.3469105  44.8920298  58.8570118  52.8774214  44.6512461
  58.6976910  52.4068069  43.6923170  57.8676701  52.8877401  45.6648493
  56.9623661  52.3461819  45.4334688  58.1625652  53.3696508  46.9444752
  57.3123026  53.3425713  47.6098394  59.4619083  53.9005518  47.1756220
  59.6624660  54.2759323  48.1682253  60.4797745  53.8762569  46.1665964
  61.4361286  54.3237782  46.3935518  63.0112410  52.0311022  42.4389172
  62.7654982  52.4712276  41.3126087  64.2308378  51.6798878  42.8370047
  64.3769693  51.5383244  43.8263035  65.4083395  51.6585827  41.9493341
  65.3854942  52.5235748  41.2864780  66.7835426  51.6259909  42.6972675
  66.7349005  50.7473850  43.3405304  67.4905252  51.3318634  41.9215298
  67.3407555  52.6648045  43.5611296  66.6857386  53.8589191  43.7415504
  65.7606077  54.0227461  43.2089186  67.2055292  54.9368572  44.4778824
  66.5968323  55.8267641  44.5407295  68.4558868  54.7347450  45.1075554
  68.8804054  55.6580067  45.9574747  68.5070419  56.5321255  45.8229017
  69.0636110  53.5005283  45.0741482  69.9725246  53.3370590  45.6341028
  68.4532642  52.4608803  44.3641520  68.9098692  51.4837074  44.4192457
  65.2899933  50.4695034  41.0036373  65.2278090  50.6773567  39.7895312
  65.3879213  49.2502689  41.4369583  65.4733133  49.0606785  42.4253225
  65.2838802  48.1062555  40.5296469  65.8232403  48.2333183  39.5910072
  65.9708738  46.8869829  41.1594629  65.4709244  46.5546131  42.0692348
  65.6743765  46.0689592  40.5029392  67.5212908  46.9138956  41.1698818
  67.7607870  45.8783770  41.4116383  67.7776527  47.3336124  40.1971436
  68.0404663  47.7574635  42.2500563  67.3734379  48.1557274  43.1836987
  69.3112040  48.0696487  42.1999025  69.7407818  48.5484982  42.9785347
  69.8060894  47.7420616  41.3826609  63.7928772  47.7880430  40.3023815
  62.9965830  47.9895401  41.2757111  63.3833694  47.4689150  39.0594816
  64.1526270  47.2207785  37.8671288  64.9485922  46.5264988  38.1364083
  64.5512438  48.1004047  37.3616910  63.1071806  46.4746189  36.9721293
  63.0660486  45.4321671  37.2878814  63.2282114  46.4752674  35.8888698
  61.7353249  47.1918583  37.2926927  60.8191299  46.6688156  37.0186234
  61.7585325  48.1626797  36.7976546  61.8841934  47.4613190  38.7923765
  61.5453959  48.4812307  38.9742923  61.2248468  46.2947893  39.6461320
  61.6963768  45.1758718  39.4428706  60.1857281  46.5859413  40.4118204
  59.8368835  47.5303793  40.3315830  59.5113611  45.6371689  41.2720203
  60.2879667  45.4256678  42.0070362  58.4365416  46.3452721  42.0612192
  57.6735020  46.6125727  41.3301754  57.9133463  45.6653452  43.3184814
  58.6987495  45.4062176  44.0284824  57.1092367  46.2532759  43.7610245
  57.4736691  44.7150612  43.0155849  59.0883923  47.6507473  42.7137709
  58.4269762  48.1620598  43.4131956  59.9692822  47.4253082  43.3148623
  59.3124580  48.2937145  41.8625975  59.0096617  44.3938255  40.4958296
  58.4425974  44.4493198  39.4273162  59.1577530  43.2912636  41.1644793
  59.6893024  43.4048510  42.0157480  58.8079357  41.9680548  40.7397366
  58.1656837  42.0394087  39.8619461  60.1132393  41.2768984  40.3188992
  60.5533314  41.8450594  39.4993758  60.8235073  41.3398361  41.1433125
  59.9820042  39.8520756  39.8105907  60.6378555  39.5372200  38.7965751
  59.1825533  38.9593029  40.2788258  58.0420399  41.1698008  41.8132830
  58.5547400  40.9407854  42.9348230  56.8953133  40.6617212  41.4447117
  56.5419626  41.0203743  40.5691433  55.9058142  40.0238037  42.3180294
  55.9924936  40.6229544  43.2244539  54.5149374  40.1495838  41.6925001
  53.9784002  41.0443830  42.0080280  54.5556021  40.0652122  40.6065273
  53.9318419  39.2935658  42.0321083  56.2259197  38.5770059  42.7054119
  55.7485151  38.0688620  43.7180233  57.0478868  37.9565525  41.9285488
  57.3116255  38.3464742  41.0349607  57.5235748  36.5786004  42.0702839
  56.7617846  35.9828806  42.5731754  57.7324724  35.8057308  40.7566929
  58.5347366  36.2476730  40.1657915  58.0803776  34.3715978  41.0807514
  58.1295872  33.7743115  40.1702976  59.0102959  34.2602658  41.6383934
  57.2579336  33.9323735  41.6453505  56.3959265  35.8476448  39.8496270
  55.6252337  35.7286716  40.6111908  56.3404465  36.8164349  39.3531728
  56.2496281  34.8158336  38.7216973  55.8325243  33.9083815  39.1583371
  55.5540705  35.2561975  38.0072927  57.2399282  34.6526504  38.2965088
  58.7116098  36.6076946  42.9563475  58.7290955  35.8691883  43.9796257
  59.7144032  37.4104500  42.6936197  59.6378851  37.9670548  41.8543100
  60.7915974  37.5593090  43.6619234  61.3805771  36.6872454  43.9460230
  61.7955494  38.6034679  43.1224585  61.3079071  39.5565128  42.9174805
  62.5861263  38.7714839  43.8538027  62.5280714  38.2251549  41.8899012
  62.8936863  37.1985936  41.8654346  61.8194580  38.2476258  41.0619736
  63.6372852  39.1481352  41.4744711  63.1993103  39.9398327  40.8666134
  64.1898251  39.5650840  42.3164654  64.5178795  38.3260870  40.5559826
  65.1521587  37.5883317  41.0474157  63.9192867  37.6660752  39.9281526
  65.2673912  39.2958784  39.7100258  65.8707714  39.8726296  40.2787018
  65.7643080  38.7096310  39.0546703  64.6095276  39.8795748  39.2134261
  60.2744293  38.1091905  45.0264692  60.5707312  37.5829530  46.1000824
  59.3833208  39.1166186  45.0256252  59.0120077  39.5089316  44.1722107
  58.9087296  39.5766807  46.4367199  59.8237514  39.6366405  47.0259953
  58.2004356  40.9104443  46.2751722  57.6098061  40.9025717  45.3590965
  57.5424194  41.1371422  47.1140575  59.1422462  42.1382380  46.0759211
  59.6957254  42.0107317  45.1455975  58.2660532  43.3703184  46.0958529
  58.7628269  44.3175793  45.8860493  57.4360085  43.1221914  45.4343748
  57.8915787  43.5200930  47.1084929  60.2055740  42.2455025  47.2094727
  60.7445288  43.1879473  47.1123695  59.7864342  42.2029734  48.2147646
  60.8334541  41.3545132  47.2124100  57.9400826  38.5197783  47.0707464
  57.6369429  38.6676860  48.2435846  57.4268532  37.5907159  46.3091373
  57.8224134  37.5127721  45.3830910  56.4383364  36.6018438  46.7300701
  56.2614679  36.1164093  45.7702923  56.9612169  35.5726123  47.6378489
  57.6083851  36.0871005  48.3481836  56.1424065  35.0553370  48.1379271
  57.7197790  34.4201064  47.0321035  57.0832443  33.6291289  46.2937546
  58.9787292  34.1952467  47.2473001  59.3699074  33.6178899  46.5167236
  59.5359230  34.9186730  47.6789188  54.9929094  37.1178150  47.1204185
  54.4578409  36.8542862  48.2176208  54.3673706  37.7917600  46.1664295
  54.8657799  37.9152012  45.2966881  53.0601311  38.2737875  46.2511826
  52.7956820  38.3160138  47.3077726  53.0612850  39.6606922  45.4962540
  53.1605148  39.5475817  44.4166899  52.1038055  40.1255226  45.7313395
  54.2693806  40.6118250  45.8234406  55.2489996  40.3126001  45.4507256
  53.9834642  41.9164228  45.1099300  54.0028191  41.7760324  44.0291786
  53.0059338  42.3041296  45.3966713  54.6945572  42.6736975  45.4400492
  54.4066334  41.0318995  47.3093796  53.5200596  41.4823484  47.7556753
  54.8613167  40.2830076  47.9578590  55.1717567  41.8072176  47.3489428
  52.2071457  37.3016453  45.4710293  52.3848152  37.2301269  44.2573547
  51.2706184  36.6410136  46.1034775  50.9123373  36.7825913  47.5385571
  50.6258917  37.8096628  47.7647686  51.6341543  36.4419127  48.2808590
  49.6531105  35.8575869  47.5744247  48.7678242  36.3489461  47.1707678
  49.4928455  35.4595327  48.5764027  49.9623203  34.7052264  46.6211176
  49.0271997  34.2111468  46.3574266  50.7028008  34.0012312  47.0008278
  50.5084085  35.5472803  45.4741526  51.2510014  34.9168968  44.9849939
  49.4064951  35.8829474  44.3585157  49.0875626  34.9972582  43.5548735
  48.8435936  37.1147752  44.4312525  49.1861296  37.7068162  45.1743937
  47.7531052  37.6118279  43.5673666  47.6645088  36.9113398  42.7369642
  46.4335823  37.5610709  44.3527460  45.6108904  38.1243253  43.9122629
  46.0965443  36.5248942  44.3236923  46.6772366  37.9125261  45.8111525
  47.0765162  39.0084600  46.2109709  46.3579655  37.0779061  46.6260195
  48.0446815  39.0348983  42.9914236  47.2099400  39.4818473  42.1911812
  49.2399788  39.6177173  43.2261324  49.9686193  39.1288805  43.7263536
  49.6532631  40.8685684  42.6224709  49.1419077  41.7122746  43.0859041
  51.1425686  41.1239290  42.8789949  51.3412857  40.8884764  43.9245462
  51.7431641  40.5130291  42.2050571  51.5595388  42.5810766  42.7377510
  51.3529301  43.5077190  43.8168001  50.9335232  43.2043505  44.7646761
  51.6582012  44.8597240  43.6481953  51.6915178  45.4853153  44.5279312
  52.1769381  45.2855921  42.4046469  52.5099230  46.6267729  42.3129129
  53.2644320  46.7353058  41.7293596  52.2616434  44.3680143  41.2770605
  52.7590704  44.7416878  40.3942585  51.9683218  43.0053520  41.4454651
  52.2199965  42.2722816  40.6933546  49.3478298  40.9155798  41.1471128
  48.8429403  41.8792439  40.5856609  49.5839357  39.8109198  40.4678488
  49.8614216  39.0057468  41.0108042  49.2905903  39.6716237  39.0064883
  49.7750664  40.4910421  38.4755063  49.7686291  38.3566380  38.4674954
  49.6162462  38.2652378  37.3920751  50.8508158  38.2463908  38.5369205
  49.1267538  37.1039057  39.0006685  49.1351748  36.8177938  40.3906441
  48.5261059  35.6374454  40.5212545  48.2118130  35.2004695  41.4575624
  48.2282639  35.0820732  39.3521452  47.7272320  34.2240882  39.1706872
  48.5960388  36.0067034  38.3384347  48.3009577  35.9148431  37.3035979
  47.8012657  39.8737645  38.5924315  47.4852228  40.0744629  37.3970366
  46.8464422  39.8293567  39.5348763  47.0719957  39.5117784  40.4667377
  45.4385233  40.2042103  39.3669724  45.2522182  40.3012228  38.2974029
  44.5342445  39.0443039  39.7673988  44.6498060  38.8734388  40.8377028
  43.4769726  39.2423463  39.5911670  44.8064995  37.7077007  38.9875507
  44.6906185  37.7578425  37.9048896  45.7931423  37.2817349  39.1697311
  43.9112186  36.6400981  39.6213031  42.8879452  37.0004702  39.5157695
  43.9725018  35.7955837  38.9349079  44.2810392  36.2766743  41.0782194
  45.1918173  35.6785154  41.1064148  44.5510244  37.2107506  41.5708733
  43.2001877  35.5000234  41.6614723  42.9094315  34.7227907  41.0857296
  43.4825420  35.0351095  42.5124931  42.3845530  36.0605764  41.8630075
  45.0975561  41.5543747  40.1432657  44.3723392  42.3588228  39.5658064
  45.7543802  41.6870260  41.3505793  46.4380550  41.0151911  41.6688919
  45.2406883  42.8034973  42.1426296  44.1599226  42.8705454  42.0179605
  45.5243397  42.6747417  43.6586237  46.5885592  42.6924515  43.8936186
  44.8334551  43.8861847  44.3719292  45.3914309  44.7540092  44.0202951
  43.7439060  43.9147806  44.3845367  45.1222038  43.7624216  45.4156828
  45.1165104  41.3469505  44.3744421  45.8048773  40.5624771  44.0600395
  45.1834202  41.5278959  45.4472351  43.6805201  40.9402704  43.9921713
  43.7834454  40.5208206  42.9913807  43.2546854  40.4270458  44.8543549
  43.0005455  41.7921638  43.9879465  45.5844736  44.1905975  41.5857077
  44.7942686  45.1331282  41.5304041  46.7611790  44.3831825  40.9033775
  47.4380302  43.6349726  40.8569145  47.2015429  45.6599998  40.3349161
  46.5008211  46.4537716  40.5937815  48.4594631  46.1508846  40.9867191
  49.1943789  45.4225397  40.6439257  48.9879799  47.5250292  40.4184628
  48.2680178  48.3281040  40.5760288  49.9372053  47.7766466  40.8914995
  49.0923738  47.5229406  39.3334723  48.4731674  46.2211800  42.5075960
  48.5261011  45.1895618  42.8555298  49.4158506  46.4541006  43.0027676
  47.3922491  47.0570803  43.2567596  47.3452854  46.5485287  44.2197084
  47.7172232  48.0969667  43.2904196  46.4637613  46.8297291  42.7330017
  47.3565245  45.6996965  38.8092399  48.1782150  45.0336933  38.1772470
  46.4878845  46.4740515  38.1995440  45.8940601  47.0606709  38.7681866
  46.2995291  46.6751766  36.7667532  46.2780857  45.6695127  36.3468909
  44.9572086  47.3204803  36.4500475  44.2609024  46.8491793  37.1436882
  44.9755096  48.3786392  36.7109323  44.5185423  47.0870161  34.9456787
  45.1961231  47.6387501  34.2940879  44.6012020  46.0212088  34.7327852
  43.0499983  47.4396610  34.5962477  42.3110819  46.8814659  35.1711535
  42.8675461  48.4792089  34.8685646  42.7610636  47.2616673  33.1190658
  42.9899025  46.2201166  32.8934288  41.6801739  47.3059320  32.9855514
  43.3884478  48.3130312  32.2972822  44.3973637  48.2671833  32.3065066
  43.1584597  48.1937551  31.3210726  43.1508636  49.2666960  32.5300336
  47.4878645  47.3400640  36.0701609  47.7206135  47.0027781  34.9579453
  48.1916189  48.2624531  36.6896987  47.8684855  48.5410738  37.6051569
  49.2975569  49.0612602  36.0780215  49.7573662  48.5642910  35.2237940
  48.8070965  50.3709316  35.4831433  48.3788872  51.0190058  36.2478256
  49.6885586  50.8703423  35.0810075  47.6814032  50.1387405  34.4525957
  46.5233326  50.3827095  34.6637058  48.1227207  49.5440960  33.3899260
  47.4500990  49.3489552  32.6621890  49.0958023  49.2921638  33.2912540
  50.4316568  49.1903496  37.1066761  50.4557085  50.1842403  37.8158021
  51.3990068  48.2888317  37.1740603  51.5144777  47.0891428  36.3490462
  51.5903568  47.4231863  35.3142715  50.6864643  46.3913393  36.4738274
  52.8254271  46.3628054  36.6822362  53.4530210  46.4629459  35.7966805
  52.7256918  45.3041267  36.9217157  53.3857632  47.0835972  37.9716897
  54.4611359  47.2118998  37.8483415  53.3383036  46.5976906  38.9462376
  52.6013756  48.3768797  37.9420042  52.1728992  48.5406971  38.9307785
  53.5692692  49.5024347  37.4992752  53.9140320  49.7327232  36.3686991
  54.1112661  50.1823378  38.5271645  53.8004732  49.9691486  39.4642138
  54.8408318  51.3910484  38.2696533  55.4471540  51.1416340  37.3988676
  53.9471960  52.5610828  37.9779720  53.2648563  52.3045540  37.1675968
  53.4923935  52.7526760  38.9498520  54.8492432  53.7561226  37.5006866
  54.2178202  54.5538092  37.1094036  55.3326797  54.1692972  38.3859420
  56.1948442  53.4986496  36.3085389  55.1457644  53.0522585  34.8520803
  54.2807770  53.7143278  34.8125482  55.6268692  53.2316589  33.8905954
  54.8691034  51.9979906  34.8430181  55.9333134  51.7269278  39.3920183
  55.5398989  51.8068123  40.5730629  57.1435452  52.1451759  39.0291476
  57.2412109  52.3346281  38.0418921  58.2905293  52.4148560  39.9334478
  57.8837156  52.8540468  40.8443356  59.1041851  51.1687946  40.3105259
  59.9832535  51.4574003  40.8867645  58.5835648  50.4691792  40.9644270
  59.6347761  50.3025723  39.0968132  59.1732407  49.1333151  38.8758063
  60.5115366  50.6571150  38.2354879  59.2158175  53.4948969  39.4116235
  59.2504025  53.7548018  38.1741309  60.0191641  54.1614342  40.2525949
  60.1041079  53.8514805  41.2100983  60.8345127  55.3067255  39.9031782
  60.1114798  56.0388327  39.5435238  61.3444138  56.0647583  41.1094475
  60.5730247  56.1076355  41.8783569  62.1483898  55.4682779  41.5406466
  61.8529272  57.5056982  40.9202766  62.8113413  57.4101591  40.4099655
  61.1652040  58.1398869  40.3608608  62.0526218  58.4659767  42.4154663
  63.2494497  57.5245619  43.2471085  64.1792154  57.4508333  42.6830149
  63.4166765  57.9556942  44.2341566  62.8878689  56.5275240  43.4986353
  61.9827366  55.0900030  38.9233518  62.3106623  56.0730410  38.2689667
  62.5771332  53.8903666  38.7795472  62.3707104  53.1090403  39.3853712
  63.4753942  53.5371637  37.6599026  64.2574406  54.2917633  37.5757122
  63.9936590  52.6095104  37.9027224  62.6965857  53.5081530  36.3514423
  63.0657148  54.0737391  35.3627372  61.5142202  52.8623009  36.3212729
  61.1901903  52.4510145  37.1849561  60.6599236  52.8787088  35.1422906
  61.1967516  52.4881315  34.2777872  59.4974613  51.8529940  35.3063941
  58.7861395  52.0618534  36.1054540  58.6218119  51.7980623  34.0429616
  57.7640581  51.1329889  34.1431141  58.2253027  52.7834702  33.7982869
  59.1121721  51.4192247  33.1462288  59.8847103  50.5195570  35.5673480
  59.9837494  50.4280186  36.5178299  60.2952528  54.3213558  34.7399664
  60.4217005  54.5959902  33.5333395  59.9692965  55.2975607  35.5806184
  59.6795607  54.9892855  36.4977455  59.7712231  56.6895533  35.2176690
  59.0650368  56.6997862  34.3874311  59.1746664  57.4656916  36.4607334
  59.9985456  57.4523592  37.1742797  58.8131714  58.9042950  36.0527658
  59.6577978  59.3957567  35.5698848  58.0430794  58.8783884  35.2818012
  58.4783030  59.4918251  36.9076133  57.9101801  56.6775370  36.9765210
  57.2370911  56.5782547  36.1249352  58.3003712  55.7376051  37.3668742
  57.2344971  57.4383211  38.0723977  57.7832031  57.9982233  38.8297153
  56.5318918  58.1640577  37.6628160  56.5062952  56.8081236  38.5829639
  61.0470438  57.3982286  34.6494961  61.0353136  58.1345987  33.7072563
  62.1674156  57.1526575  35.2974558  62.0867634  56.7368174  36.2143373
  63.5051346  57.7359438  34.9766612  63.5269737  58.8231802  34.9021554
  64.5798922  57.3352718  35.9674549  64.3598890  57.7960873  36.9304466
  64.5989180  56.2465477  36.0166287  66.0150337  57.8193855  35.6945944
  66.3917875  57.4166489  34.7544026  66.0233593  58.9034605  35.5813956
  66.9595861  57.3925352  36.7796588  66.5947342  57.8334761  37.7073216
  66.9556522  56.3056707  36.8622255  68.3619547  57.9822588  36.5591335
  68.8814497  57.4610806  35.7550192  68.2845736  59.0138102  36.2156081
  69.1890669  57.9613543  37.8015256  69.2124748  56.9909906  38.0807161
  70.1570272  58.1679583  37.6003528  68.8662529  58.6133909  38.5020566
  63.9897203  57.2103643  33.6476183  64.4333696  58.0055904  32.8075457
  63.6777449  55.9434986  33.3380842  63.2231855  55.4560328  34.0969324
  63.9579391  55.2045298  32.0533609  65.0109482  55.3540611  31.8147922
  63.8793230  53.6375284  32.1995163  62.9378414  53.3445120  32.6641178
  63.8223076  53.1977177  31.2038136  65.1881647  53.1023550  32.9008961
  66.0424471  53.3356524  32.2653842  65.2990866  53.5940075  33.8673735
  65.1375294  51.6192579  33.0127931  64.6613026  51.1796331  32.1364141
  66.1504745  51.2190342  33.0558920  64.2464733  51.2661791  34.2011738
  64.7764921  51.5990400  35.0935793  63.3216333  51.8063211  33.9986420
  63.9815855  49.7970104  34.2750931  63.5009718  49.4825411  35.1058912
  63.4739399  49.4608593  33.4692407  64.8728037  49.3225718  34.3023396
  63.0025816  55.7842064  31.0224175  63.4946966  56.0262203  29.9661446
  61.7717123  55.9345150  31.3388252  61.4207745  55.5666637  32.2115397
  60.8090782  56.5544224  30.3785968  60.7923651  55.9370565  29.4804454
  59.3770552  56.4434338  30.9205866  59.3709278  56.6204929  31.9960928
  58.7325191  57.2139072  30.4974389  58.7555170  55.0725174  30.7204723
  58.8647842  54.8536396  29.6582794  59.3773127  54.2917824  31.1585569
  57.3459244  54.9886608  31.2467980  57.3331833  55.1279116  32.3277903
  56.6392469  55.7405472  30.8955526  56.8382931  53.6248255  31.1229753
  57.5009203  52.9495525  30.7693768  55.6068611  53.1228256  31.2058783
  54.6204996  53.7316799  31.7052245  54.8022747  54.6299982  32.1295881
  53.7515450  53.2803249  31.9527984  55.3899002  51.9254351  30.7229948
  56.1426783  51.2696743  30.5700135  54.4331121  51.6180420  30.8237624
  61.1875868  57.9383230  30.0456405  61.3024569  58.0973864  28.8650370
  61.5995073  58.8430786  30.9208369  61.5888977  58.6102962  31.9035935
  62.1753693  60.1864815  30.5711150  61.4451933  60.6937218  29.9405241
  62.3875713  60.9794378  31.9044447  62.9616737  60.3332520  32.5684881
  63.0557537  61.8209887  31.7215943  61.0852098  61.4617252  32.5255036
  60.2553320  60.7627296  32.4215317  61.2945843  61.6268969  34.0312028
  60.3681040  61.8706417  34.5511198  61.6593075  60.6631231  34.3864822
  62.0976257  62.3387337  34.2222810  60.6174278  62.7894592  31.9202542
  61.4246082  63.5216236  31.9423008  60.2845144  62.5364208  30.9136510
  59.8104525  63.2297230  32.5059676  63.4960508  60.0589609  29.6794891
  63.8251972  60.9811163  28.8756442  64.2632008  58.9901304  29.9066520
  63.9828253  58.2060957  30.4782939  65.5688810  58.7941790  29.2058396
  66.0859251  59.7529745  29.2442822  66.3934374  57.8479099  30.0796223
  66.5288448  58.3013344  31.0615444  65.8537006  56.9205999  30.2716517
  67.7947521  57.5726557  29.4336557  68.2351065  56.7295790  29.9660230
  67.6473808  57.1517467  28.4390616  68.7370968  58.7514877  29.2723823
  69.7037029  58.6251926  28.4968042  68.6769915  59.7941828  30.0130892
  65.4019356  58.2986832  27.7733088  66.0278654  58.7719154  26.8343258
  64.4053173  57.4266005  27.5727534  63.8572264  57.0786381  28.3464599
  63.8710022  57.0016527  26.2590289  64.7166967  56.7551565  25.6170464
  63.1996012  55.6457472  26.5369749  62.3991776  55.6646347  27.2766137
  62.7185535  55.3541040  25.6033540  64.1590548  54.5111942  26.8328929
  65.2029848  54.4296408  26.2240434  63.9685202  53.6637163  27.8266048
  64.6817541  53.0063152  28.1080747  63.1293440  53.8265324  28.3645368
  62.8968430  57.9392433  25.5684352  62.5789547  57.7483416  24.4246674
  62.4866772  58.9749241  26.2742877  62.9319048  58.9727163  27.1808577
  61.5736818  60.1103210  25.9098172  61.5093660  60.8137846  26.7399406
  62.3252821  60.9251308  24.7969842  62.7078342  60.3378963  23.9621735
  61.5617466  61.5483570  24.3314672  63.3833504  61.9447088  25.2206063
  64.4874096  61.5990734  25.5792594  63.0314398  63.2148027  25.2344251
  63.6753511  63.9927864  25.2494502  62.1516132  63.4393406  24.7921777
  60.1183176  59.7447634  25.7173157  59.4619513  60.2695751  24.7998357
  59.5211697  58.8410664  26.5170503  60.2096891  58.5810137  27.2087216
  58.1477356  58.2434845  26.5004206  58.0653429  57.6015472  25.6233668
  57.9661179  57.3539877  27.7202106  58.7078094  56.5750694  27.5433350
  58.2240295  57.9012442  28.6269045  56.5898657  56.7336941  27.9279137
  55.7496023  57.1111155  29.0191197  56.1073351  57.8887749  29.6776557
  54.5864391  56.3702440  29.3279910  54.0228844  56.6643524  30.2010942
  54.1956806  55.2780771  28.4903240  53.1030130  54.5669460  28.8333845
  52.6156902  54.7709608  29.6349430  55.0101662  54.9109077  27.4430346
  54.7372198  54.0542507  26.8446732  56.2362146  55.6211472  27.1598744
  56.9498158  55.2789259  26.4249849  57.0271635  59.3248034  26.5270925
  56.0688210  59.4130945  25.7404137  57.0363140  60.1146555  27.6223063
  57.8097200  60.1488543  28.2709765  56.0637665  61.2427425  27.7919292
  55.0675917  60.8071041  27.7147484  56.1364174  61.7836618  29.2736673
  56.9816732  62.4676037  29.3502235  55.2522993  62.4019051  29.4292617
  56.2423468  60.6783199  30.3394198  55.1472473  59.9500227  30.8240533
  54.1759396  60.1562834  30.3992939  55.3937769  58.9231253  31.8001199
  54.5352364  58.3678198  32.1478915  56.6823769  58.7819147  32.3450470
  56.8129301  57.8583860  33.2807636  55.9388590  57.5212240  33.4903598
  57.7837849  59.3741798  31.7177153  58.7824583  59.0408516  31.9584394
  57.5536680  60.3817081  30.7812047  58.4383821  60.8329344  30.3568482
  56.2406445  62.4879980  26.7672563  57.4247026  62.6961756  26.3428569
  55.2679920  63.3310127  26.3839126  54.4090796  62.8935623  26.6855812
  55.3759384  64.7363472  25.9017324  56.4336538  64.9748230  25.7900572
  54.8222971  64.8106670  24.4617009  55.5609894  64.3465137  23.8082528
  53.8942671  64.2434072  24.3904138  54.5582724  66.1537457  23.8142323
  53.3606768  66.7127800  23.7151861  52.4391556  66.2896872  24.0869474
  53.5305929  67.8874254  23.0078769  52.7307653  68.4921026  22.8864646
  54.7754192  68.1394911  22.6946259  55.3556824  69.2401743  22.0181441
  54.7742224  69.9052858  21.3969111  56.7343998  69.2344141  21.7898679
  57.3284912  69.9518681  21.2433124  57.4887037  68.1746721  22.2360325
  58.5676003  68.1848097  22.1882701  56.9260693  67.1113157  22.9432440
  57.5352812  66.2573862  23.2002711  55.5048847  67.0643234  23.1962967
  54.6612740  65.6630135  26.8870425  54.9211979  66.8595123  26.8049264
  53.8750362  65.2112484  27.7810526  53.5795927  64.2565012  27.6352096
  53.0643320  66.0239506  28.7234998  53.2356834  67.0694590  28.4672785
  51.5890503  65.7447720  28.5497260  51.3066959  66.1917210  27.5965142
  51.4491367  64.6661186  28.6207175  50.9191799  66.4139795  29.6547937
  49.9894762  66.1786127  29.6117568  53.4526205  65.7848310  30.1873922
  53.3850145  64.6433115  30.6338596  53.8874912  66.8239403  30.8257198
  53.7414742  67.7500486  30.4500771  54.3399954  66.7274380  32.2308469
  54.9882889  65.8511877  32.2322989  55.0119352  68.0603123  32.7511311
  55.8159256  68.2963896  32.0540190  54.2612410  68.8482475  32.6901937
  55.3514957  67.8737593  33.7699556  53.1496859  66.2809896  33.1486988
  53.3402967  65.6534481  34.1564155  51.9009399  66.7236996  32.8031540
  51.9174671  67.1296835  31.8784904  50.7330799  66.2517977  33.5259748
  50.8468866  66.3573933  34.6048617  49.4806194  67.0195675  33.0006671
  49.5777845  68.1049156  32.9746699  49.3480873  66.7939186  31.9425464
  48.3143139  66.6826963  33.7389731  47.8521299  65.9495687  33.3260417
  50.4367304  64.6541834  33.3852005  50.0073385  64.0598631  34.4028878
  50.7173586  63.9849377  32.2307992  51.0627127  64.5877552  31.4976931
  50.6898403  62.5247955  32.0803285  49.6903229  62.2348595  32.4043584
  50.8147383  62.0522451  30.6255221  51.7674685  62.3729181  30.2041292
  50.7454777  60.9645367  30.6116080  49.7460127  62.6262999  29.7032905
  49.9014330  63.7048388  29.7297168  49.9235392  62.2985506  28.6790037
  48.2475996  62.2604275  30.0747681  47.4652052  63.2330704  30.2571797
  47.7625465  61.1057520  29.9158049  51.7365170  61.8529177  32.9271007
  51.5403891  60.7565117  33.4403348  52.9330397  62.4210739  33.0067587
  53.0118227  63.1419420  32.3037362  54.1108799  61.9318962  33.6559081
  54.4159603  60.9170532  33.4007144  55.2233982  62.8553486  33.2144976
  55.2912426  62.9675865  32.1324110  54.9684811  63.7719965  33.7463546
  56.8561697  62.2840261  33.8286233  57.0161247  61.3513994  32.8854775
  53.8458681  61.9205761  35.1748800  54.2227364  60.9787560  35.8691478
  53.1329632  62.9223585  35.7232928  52.8880596  63.7213421  35.1560664
  52.5799465  62.8531790  37.0942545  53.3984613  62.6477718  37.7841377
  51.9440556  64.2550230  37.5099707  51.3825512  64.6361542  36.6570020
  51.3806295  64.1358519  38.4354162  53.1643343  65.2163315  37.7186894
  53.6542177  64.6442080  38.5065913  53.8109255  65.0463438  36.8578053
  52.8671026  66.9248199  38.0947137  52.0056391  67.5671768  36.6400051
  52.5740385  67.3313856  35.7403302  50.9805727  67.2041273  36.5655899
  51.8417215  68.6437750  36.5933681  51.6384888  61.6207504  37.3488927
  51.5935135  61.0945129  38.4701729  50.9037304  61.0437965  36.3938951
  51.1564159  61.2573051  35.4396081  50.0913715  59.7440624  36.5740085
  49.5286322  59.8475885  37.5017500  49.0090942  59.7027349  35.4127789
  48.4050512  60.6098700  35.4309630  49.5604038  59.6489573  34.4740224
  48.0697107  58.4745979  35.4027653  47.3380566  58.6024380  34.6049953
  48.5820341  57.5595713  35.1055264  47.2568035  58.1649828  36.6527390
  47.3183680  58.7222433  37.7467465  46.2691593  57.3247242  36.5613604
  45.6318474  57.1577072  37.3268938  46.1450052  56.7293692  35.7549906
  50.8851194  58.5026217  36.7158079  50.4664660  57.5081635  37.3459005
  52.0994711  58.3882093  36.1407614  52.4037790  59.1760874  35.5869079
  53.0402040  57.2871876  36.4478874  52.4584293  56.3707447  36.3490367
  54.1835356  57.2209644  35.3644753  54.6270466  58.2163334  35.3898335
  55.0179243  56.6182232  35.7230735  53.6937332  56.6284037  33.9794612
  52.5391674  56.6865492  33.5740495  54.5838785  56.0664558  33.3632040
  53.5746908  57.3798227  37.8659344  53.5389090  56.4011908  38.6244369
  53.9528322  58.5826731  38.2965183  53.9319229  59.3761110  37.6719189
  54.1924286  58.8465500  39.7805619  54.9426842  58.1115866  40.0721931
  54.7406197  60.2157688  40.0054884  54.4690371  60.9580088  39.2548704
  54.3034029  60.6347370  40.9118032  56.2363625  60.3334141  40.2261782
  56.9384289  60.9574413  39.1701102  56.4146662  61.3737440  38.3223081
  58.3411455  61.1803436  39.2267919  58.8383770  61.7633009  38.4656596
  59.0425634  60.5905104  40.2994394  60.0814199  60.8208370  40.4841900
  58.3940172  59.7183704  41.1596537  58.9947414  59.2502737  41.9254303
  57.0123243  59.6407270  41.1538887  56.4805651  59.0777302  41.9066620
  53.0088425  58.6044836  40.7180595  53.1421232  58.0067110  41.8525839
  51.8168259  59.0843010  40.3556871  51.7090988  59.4766951  39.4312811
  50.5951738  58.8670492  41.1780357  50.8449030  59.0430832  42.2243404
  49.4349098  59.8843670  40.7816696  49.8496628  60.8871031  40.6786871
  49.1538668  59.6215057  39.7618604  48.1771612  59.9012280  41.6349030
  47.1646261  59.2819500  41.3791180  48.2009077  60.6353426  42.7895737
  47.3301125  60.7519960  43.2877827  49.0763998  61.0860395  43.0142784
  50.2252483  57.3696041  41.1885357  49.7802782  56.8129778  42.1896648
  50.4048109  56.6359949  40.0914001  50.7354069  57.0767736  39.2449212
  50.3185701  55.1698065  40.1279163  49.2909145  54.8837423  40.3519583
  50.5563259  54.6295118  38.6951995  51.4584398  55.0717354  38.2724428
  50.5659914  53.1322193  38.5125589  49.5949984  52.7246046  38.7938356
  50.7926226  52.9115820  37.4694586  51.2739849  52.6341343  39.1749477
  49.5160580  55.0093603  37.8257155  49.7177076  55.9385157  37.6930213
  51.2450075  54.5175505  41.1486053  50.7788801  53.7450218  42.0004368
  52.4636984  54.9095249  41.1214161  52.7909088  55.6053162  40.4665089
  53.5475588  54.3331289  41.9561243  53.5690880  53.2953978  41.6233444
  54.8789835  55.0097752  41.6931915  55.2842760  54.9223852  40.6851244
  54.7893810  56.0949183  41.7435741  56.0462952  54.5310068  42.5622749
  55.7977438  54.5561218  43.6232615  56.1682177  53.4942913  42.2485018
  57.6026773  55.3373146  42.2368240  57.5947905  56.6247988  43.4597921
  58.4846306  56.4016247  44.0484190  57.7185917  57.5723457  42.9354572
  56.6465425  56.7732334  43.9764071  53.1694126  54.4409847  43.4681225
  53.2447195  53.3903313  44.1400480  52.8605795  55.7142258  44.0143013
  52.8521872  56.5481710  43.4445953  52.3734426  55.8615685  45.4063320
  53.1977510  55.5075169  46.0254192  52.3154020  57.3933744  45.6638527
  51.7104769  57.8036642  44.8552561  51.8376446  57.6751852  46.6021681
  53.6390018  58.0799150  45.5624199  54.6869230  57.6985264  46.4512300
  54.4543695  57.0419788  47.2766161  55.9457016  58.3740664  46.3408279
  56.7444086  58.0730963  47.0025635  56.1739159  59.3310642  45.3364849
  57.1044779  59.8746157  45.2656841  55.1239777  59.6640921  44.3993855
  55.2545357  60.4673338  43.6893415  53.8309240  59.0498304  44.5595217
  53.0446196  59.1578627  43.8270903  51.1731339  54.9842215  45.7210541
  51.2694883  54.1396999  46.6122723  50.0742531  55.1043081  44.9585629
  50.1431894  55.7545090  44.1887665  48.7683773  54.5053005  45.1298857
  48.3790064  54.8456097  46.0894060  47.8022385  55.0164795  44.0577936
  48.0136061  54.5666409  43.0877066  46.2784052  54.6159124  44.3899679
  46.1907530  53.9943218  45.2810621  45.5866432  55.4294205  44.6085262
  45.9106922  54.0713930  43.5202646  47.8068161  56.4268875  43.9109135
  48.5068798  56.6622877  43.2976437  48.8195229  52.9803467  45.1183414
  48.2265615  52.4017906  45.9623194  49.5608759  52.3083639  44.1875505
  50.0159025  52.8455400  43.4633303  49.6943712  50.8585358  44.2047358
  48.7235785  50.3718472  44.1109610  50.5925846  50.4868174  43.0366325
  51.4678144  51.1363888  43.0252600  50.8951759  49.4634247  43.2584524
  49.8046541  50.4563761  41.7574167  48.5810995  50.5871773  41.6721010
  50.5738306  50.3249598  40.7345963  50.2433968  50.2739906  39.7815394
  51.5696812  50.2135515  40.8609343  50.2754211  50.4328108  45.5840826
  49.7675037  49.4542170  46.1169147  51.2760639  51.1821508  46.0402298
  51.6277790  51.9634724  45.5054998  51.9782066  50.8375359  47.3086929
  52.2758770  49.7894001  47.3388672  53.2254553  51.6117525  47.4912739
  53.9235210  51.4201975  46.6763449  53.0497456  52.6823378  47.3860312
  53.9374781  51.4289904  49.1916990  54.3388510  50.1553202  49.1522789
  51.0845995  50.9615803  48.5445261  51.1414099  50.1209688  49.4520235
  50.1508045  51.8546391  48.4996367  50.2288628  52.5957108  47.8178549
  49.0915489  51.9883060  49.4493723  49.4971418  51.7218924  50.4253912
  48.5556555  53.4049320  49.3938303  48.0593014  53.5451937  48.4335899
  47.8871393  53.4894085  50.2505970  49.5184612  54.5814037  49.4922924
  50.8019209  54.4836426  50.1258802  51.1880827  53.5710812  50.5554342
  51.5711594  55.6640244  50.2332163  52.5501871  55.5102062  50.6624556
  51.1993504  56.8011332  49.5894289  52.0165110  57.8276825  49.5770741
  51.4982271  58.6206913  49.7323847  49.9965858  56.9173241  48.8780403
  49.8128128  57.8422165  48.3515358  49.1656303  55.7621002  48.7789297
  48.1854486  55.7989979  48.3269548  47.9696608  50.9112692  49.2508888
  47.1585941  50.7610893  50.1606703  47.7819300  50.2511644  48.1172752
  48.5566807  50.4685354  47.5068569  46.7440319  49.2599487  47.8209639
  45.8770943  49.6594238  48.3472157  46.3065243  49.3201923  46.3880157
  47.2100973  49.2228937  45.7861996  45.3269815  48.1917000  46.1362314
  44.3484497  48.2933044  46.6055489  45.1979303  48.1574869  45.0544405
  45.8351564  47.2641611  46.3999128  45.5821753  50.6325483  46.0598946
  44.6404314  50.6867743  46.6060495  46.0399818  51.4934349  46.5471268
  45.4736614  50.9160519  44.5207548  44.8660040  51.8135405  44.4051790
  46.4895916  51.0722494  44.1580153  45.0091124  50.1134443  43.9479494
  47.0076656  47.9376411  48.5090065  46.1623335  47.4321938  49.2745972
  48.2018661  47.4561501  48.2394409  48.7886906  47.9867697  47.6115990
  48.6752844  46.0781670  48.4911919  47.7164936  45.5597591  48.4995890
  49.4211340  45.5333996  47.2145176  48.9444065  46.0946178  46.4108610
  50.4223919  45.9626436  47.2510576  49.4371462  44.0600824  46.9822741
  48.2427073  43.3924150  46.6328764  47.3339176  43.9682388  46.5383482
  48.2583380  41.9698477  46.5730238  47.3992014  41.4586353  46.1644363
  49.4248104  41.2834644  46.9721127  49.5099878  39.9336219  46.9625616
  48.6537123  39.5794845  46.7115927  50.5868387  41.9734383  47.3337698
  51.4588404  41.4299488  47.6663828  50.5931330  43.3468533  47.4326849
  51.4874125  43.8782120  47.7230740  49.4853544  45.9082270  49.8876429
  50.2387762  44.9741602  50.0992823  49.1939116  46.7025423  50.8971977
  48.4713364  47.3898220  50.7370996  49.7284889  46.6275358  52.2659254
  49.7909546  45.5671167  52.5102806  51.0478544  47.4600697  52.3774910
  50.8321762  48.4917593  52.0996523  51.3448000  47.5079298  53.4251738
  52.1822882  46.9472408  51.5032721  52.9573536  46.0208893  51.7875195
  52.5099754  47.6665306  50.4378366  53.2612944  47.2920799  49.8762226
  51.9273090  48.4459448  50.1674604  48.8646460  47.3793364  53.2819319
  48.2713509  48.4010506  52.9228926  48.6429119  46.8793678  54.5353174
  48.9383936  45.9275389  54.6990776  47.9436922  47.5536013  55.6563902
  46.9005251  47.5553894  55.3403187  48.0132008  46.8890524  57.0839024
  47.1907425  47.1582556  57.7466154  47.9179525  45.8221245  56.8821859
  49.3516350  47.0310783  57.7834892  50.0866318  46.5793610  57.1172762
  49.6968985  48.0444670  57.9882812  49.4642115  46.2754965  59.1227579
  48.6528492  46.5601492  59.7926617  49.4774818  45.1954794  58.9761925
  50.7409143  46.7325497  59.9250031  51.6356087  46.3951683  59.4017506
  50.7205486  47.8214169  59.9703264  50.6773043  46.3013124  61.3650846
  51.5740395  46.2998819  61.8298101  50.0288773  46.9381380  61.8056488
  50.3343344  45.3535318  61.4297152  48.3602762  49.0967894  55.7223463
  49.5013523  49.4339371  55.4425144  47.4077749  49.8573685  56.2580538
  46.0362625  49.6508455  56.7105675  45.8712435  48.6679220  57.1518469
  45.2817154  49.5841026  55.9267902  45.6952429  50.6840229  57.6848030
  46.0945463  50.4308081  58.6669159  44.6261501  50.7699156  57.8791380
  46.3887548  51.8742704  57.1082211  46.6417980  52.5509644  57.9244041
  45.7190943  52.3073006  56.3651562  47.6136494  51.2543821  56.4294147
  47.7111578  51.6638803  55.4239798  48.7988043  51.6986370  57.2573376
  49.4116497  52.7380180  56.9978809  49.2483044  50.8889484  58.1835890
  48.6751175  50.0937462  58.4269190  50.3371763  51.2150240  59.1252851
  50.5902195  52.2752333  59.1203737  49.9199247  50.8343649  60.5881357
  50.7579184  50.8446026  61.2851000  48.8268614  51.6925621  61.1233187
  49.2220783  52.6953602  61.2854958  48.0607271  51.6714668  60.3482723
  48.3383799  51.2532473  61.9930840  49.4919395  49.4963360  60.5894423
  49.5432997  49.1665030  61.4895391  51.6711187  50.4645157  58.8093472
  52.6544476  50.4419565  59.5954132  51.7963314  49.8907375  57.5984001
  51.1255693  50.1495457  56.8890381  52.9668140  49.1144800  57.2243309
  53.2160091  48.5211563  58.1040859  52.6594925  48.1555033  56.1004305
  51.6413832  47.7985620  56.2558365  52.6289320  48.7215614  55.1694441
  53.5702753  46.9681263  56.0505199  54.1963959  46.7164087  57.1102190
  53.6030245  46.1207485  55.0846386  54.2362595  49.9355793  56.7952299
  54.1845131  51.0296011  56.3036203  55.4587030  49.4742537  57.0829916
  55.5622816  48.5586739  57.4966145  56.7892647  50.1747274  56.9707823
  56.5967894  51.0259247  57.6238680  57.9093599  49.2785645  57.5750113
  58.0575514  48.4671593  56.8624401  58.7844276  49.8813725  57.8178596
  57.4846458  48.6888885  58.9181137  56.8271017  49.4132853  59.7003984
  57.8530979  47.4853802  59.1760445  56.9756365  50.7685947  55.5557442
  57.3191833  51.9344139  55.3139925  56.6901445  49.9502707  54.5633078
  56.4792919  48.9748621  54.7189474  56.7935181  50.4015684  53.1717920
  57.7976894  50.8254862  53.1659603  56.7311668  49.1740274  52.2761250
  57.3852348  48.4746313  52.7968454  55.3062725  48.5927057  52.0335722
  54.7296000  49.3677092  51.5286684  55.3536320  47.6166391  51.5507126
  54.9508381  48.2224274  52.9951620  57.3200607  49.3509245  50.8605003
  57.3464823  48.3286810  50.4831076  56.6802120  50.0817251  50.3659010
  58.7394238  49.8452139  50.9538221  58.7963963  50.9337282  50.9556437
  59.3413210  49.5259476  51.8046379  59.2294788  49.5142651  50.0381708
  55.8352280  51.4805555  52.7515125  56.2056923  52.3696613  51.9664621
  54.6027136  51.5275669  53.2351637  54.3584251  50.8696890  53.9615345
  53.6392355  52.6995087  53.1617880  53.5835886  52.9276705  52.0973873
  52.1895885  52.3885298  53.6656761  52.3333406  51.9506168  54.6534348
  51.3394594  53.5807419  53.8138676  50.4095030  53.2286596  54.2603254
  51.6977692  54.4377899  54.3841219  51.1279392  53.9111757  52.7969265
  51.5911484  51.2224674  52.8385448  50.5372047  51.0770273  53.0755138
  51.8170166  51.3157463  51.7762899  52.1351624  50.3405285  53.1766701
  54.1764688  53.9855099  53.8519382  54.2652893  55.0150681  53.1224060
  54.6787691  53.8778067  55.0458050  54.6318388  52.9960823  55.5361843
  55.4574347  54.9343967  55.6571913  54.8085308  55.8044195  55.7576704
  55.9195614  54.5987320  57.1108913  56.4799547  53.6641741  57.1366739
  56.5870094  55.3996992  57.4288225  54.7834301  54.5177841  58.1484413
  53.8548470  54.0560436  57.8128290  55.2497768  53.9751625  59.5122766
  55.4497957  52.9055977  59.4480848  56.1282539  54.6130562  59.6095657
  54.5561695  54.1398382  60.3368330  54.3484116  55.9510231  58.4288883
  55.2020550  56.3771105  58.9559984  54.0356445  56.5068245  57.5449371
  53.6115742  55.9702492  59.2318821  56.6351414  55.4794741  54.8689604
  56.7374086  56.7133760  54.7370815  57.5177956  54.6550035  54.3250227
  57.3313379  53.6838722  54.5305443  58.5631657  55.1314116  53.4071589
  59.2850590  55.8076668  53.8650370  59.3483114  53.9252758  52.8953362
  58.6179638  53.2177782  52.5027227  59.9401188  54.1826057  52.0169020
  60.0294685  53.0864573  53.8877201  59.9729300  53.6465359  54.8211098
  59.5158148  52.1305847  53.9905834  61.8648386  52.8340435  53.7095928
  61.8567038  51.9254017  52.1227837  62.8627968  51.5793657  51.8858385
  61.1634254  51.0842991  52.1250582  61.6459846  52.7042675  51.3899326
  58.0210495  55.8175707  52.1997213  58.4600496  56.9753838  51.8762732
  57.1500206  55.2037191  51.5100431  56.8281126  54.3474579  51.9381666
  56.3996220  55.8108950  50.4309654  57.0975399  55.8383131  49.5941544
  55.2584982  54.9417305  49.9537516  55.5645800  54.0724421  49.3717241
  54.6546555  54.5320940  50.7634878  54.5572519  55.4740334  49.3110943
  55.7554436  57.1416330  50.7199955  55.9860754  58.1354427  50.0121450
  55.0392771  57.2654533  51.8113804  54.8646116  56.4349842  52.3590183
  54.4643784  58.5309172  52.2970724  53.7875509  58.8906002  51.5220642
  53.5914898  58.2563448  53.5546684  54.2253494  57.6853609  54.2331171
  53.4070921  59.1953993  54.0764713  52.3027182  57.5395441  53.2678413
  51.6808748  58.1235981  52.5893974  52.4866486  56.5679884  52.8092098
  51.5243578  57.1987438  54.4816971  52.0048237  57.1174335  55.5815697
  50.2479076  57.0952225  54.3026686  49.6353960  56.8797588  55.0762987
  49.7819948  57.0732975  53.4068203  55.4275084  59.7078371  52.6164961
  55.0519800  60.8268547  52.4402761  56.6603661  59.3796158  52.9442692
  56.9571400  58.4215021  53.0627775  57.6471376  60.4413891  53.0731010
  57.2025442  61.1761475  53.7443399  58.9805603  59.9611282  53.6792707
  59.7850180  60.6599092  53.4498072  58.8000488  59.7477484  54.7328281
  59.3346786  59.0371656  53.2221079  57.9813862  61.0817003  51.7664862
  58.0962372  62.3107100  51.6264963  58.2929230  60.2569675  50.7762861
  58.0892849  59.2861986  50.9666681  58.6298800  60.5084658  49.4082642
  59.5339251  61.1120892  49.4885492  59.0765524  59.1300583  48.7528133
  58.1935167  58.5067272  48.8935375  59.2233372  59.2713976  47.6820278
  60.1862860  58.2559967  49.3573141  60.0080681  58.1367016  50.4260111
  60.2040434  56.8954611  48.6523485  59.2681313  56.3535357  48.7883043
  60.5239487  56.8902731  47.6103640  61.0111284  56.3931799  49.1856623
  61.5698242  58.9525414  49.2487812  61.5899611  59.7188282  50.0237036
  62.4361753  58.3474541  49.5160007  61.7334175  59.5372868  48.3435631
  57.5421190  61.1612558  48.6546040  57.8123379  62.0603895  47.8712511
  56.2887669  60.7414341  48.8418150  56.1796188  59.9298096  49.4329643
  55.1602936  61.4761400  48.3221149  55.1320839  61.3595152  47.2387362
  53.8947535  60.9143209  48.9658928  53.6439276  59.9923229  48.4413815
  53.9858246  60.7369184  50.0374985  52.5575924  61.6894960  48.7555456
  52.4170828  62.6585007  49.2344904  52.6452398  62.0021486  47.7150297
  51.3409519  60.8117485  49.0667725  51.1548710  60.3379488  50.2099037
  50.6894302  60.4907036  48.1222439  55.0978422  62.9327631  48.7301493
  54.8598051  63.8138008  47.9003811  55.3624392  63.2513475  50.0030375
  55.5691671  62.5198221  50.6680393  55.5187178  64.6351576  50.5112791
  54.6504116  65.2654648  50.3192997  55.7282972  64.6298122  51.9593477
  56.4933920  63.9227581  52.2799730  55.9840298  65.6404066  52.2777748
  54.4015551  64.1532612  52.6878738  53.5321283  64.8032999  52.5896502
  54.1609097  63.1837940  52.2516155  54.6634388  63.9784956  54.1835403
  55.5294132  63.3216429  54.2656612  54.8659611  64.9912691  54.5319319
  53.4530401  63.4143782  54.9007654  53.6636257  63.5460186  55.9620953
  52.6062870  64.0667152  54.6873045  53.1135225  62.0561314  54.5782566
  52.6814222  61.9337273  53.6735964  53.9865017  61.5487051  54.5551729
  52.6029921  61.7007303  55.3739643  56.6387272  65.4052544  49.7923183
  56.3584089  66.4769983  49.3177319  57.8466082  64.8069000  49.6468878
  57.6722193  63.8220739  49.7876024  58.9005184  65.2183294  48.7834549
  59.1656876  66.2222815  49.1149139  60.1583195  64.3505669  48.9240503
  59.9394274  63.2840776  48.8712740  61.1728859  64.6806049  47.9022884
  62.0247936  64.0118647  48.0253363  60.7149220  64.5110226  46.9278049
  61.4055872  65.7447386  47.9419279  60.6843805  64.7378206  50.3224993
  61.0234737  65.7711363  50.3958607  59.8543167  64.6469688  51.0231018
  61.8700743  63.8486338  50.7526827  62.0014811  63.8008308  51.8336773
  61.6463852  62.8281927  50.4416037  62.7112913  64.2498922  50.1874876
  58.3117580  65.4811478  47.3554802  58.3221292  66.6316462  46.9646788
  57.8789282  64.4569492  46.6283560  57.9210186  63.5452414  47.0609236
  57.2230625  64.5969820  45.2768040  58.1378746  64.7629547  44.7078848
  56.5529633  63.2297277  44.7883320  57.3606634  62.5236940  44.5953751
  55.9862566  62.8649712  45.6450081  55.6705046  63.3460903  43.5561752
  56.3414812  63.7715912  42.3715687  57.4191046  63.8376951  42.3439169
  55.6962633  63.8089371  41.1446762  56.3036251  63.8615131  40.2531910
  54.3220901  63.5753584  41.1621046  53.7859726  63.4852314  40.2289057
  53.6417770  63.1861687  42.3579264  52.5740385  63.0457115  42.2766209
  54.2944241  63.0526495  43.5699749  53.7566423  62.7683592  44.4623756
  56.2430096  65.7672739  45.1242352  56.3048935  66.4362764  44.1033363
  55.3243065  65.9382439  46.1193180  55.2833652  65.2773094  46.8819380
  54.1723061  66.8794298  45.9131384  53.8761377  66.8578053  44.8643684
  52.9671907  66.5541315  46.8499374  53.2208395  66.3382959  47.8878069
  52.3035431  67.4108171  46.9672298  52.1600294  65.2929974  46.3451147
  52.8064680  64.4159603  46.3773394  50.9788179  64.8532295  47.2067308
  50.2008820  65.6053305  47.0753431  50.7135916  63.8546944  46.8593407
  51.2679243  64.7869110  48.2555962  51.5971804  65.3597546  44.8458195
  51.0784435  66.3183212  44.8332214  52.3982334  65.3998804  44.1077089
  50.9394550  64.5323753  44.5794725  54.5800543  68.3822060  46.0357809
  54.0344620  69.2342901  45.3722000  55.6199980  68.5901451  46.7923641
  55.9982920  67.9155159  47.4418736  56.3292027  69.9073267  46.9962168
  55.5684185  70.6631899  47.1911049  57.1354675  69.8608065  48.2757044
  56.4877129  69.5140839  49.0808725  57.8706455  69.0567255  48.2430363
  57.7449751  71.2304544  48.6092710  57.2955418  72.0633125  48.0684757
  57.7210474  71.4019012  49.6854353  59.2026091  71.3595819  48.2685232
  59.7715235  70.6435347  47.4127579  59.9305058  72.0475960  49.0412331
  60.8794928  72.0830727  48.6973286  59.6266222  72.4788475  49.9024963
  57.3370123  70.3385210  45.9550190  57.4451590  71.4974689  45.5608988
  58.1119490  69.4210148  45.3531122  58.1273365  68.5088539  45.7865047
  58.9956474  69.7023964  44.1813087  59.5408010  70.6403828  44.2866468
  60.1063728  68.6275482  44.0902376  60.2301550  68.2883978  45.1187134
  59.7683811  67.8186035  43.4425735  61.5291834  68.9096308  43.5348082
  62.2442055  68.0929232  43.6339855  61.4841604  69.0046692  42.4498940
  62.2636652  70.1101494  44.0658236  63.2157135  70.1766872  43.5392570
  61.6999578  71.0315895  43.9199162  62.6660109  70.0691271  45.5439615
  61.8061495  70.0018358  46.2104511  63.4142590  69.2897081  45.6879711
  63.3045483  71.3275862  45.9148884  64.0395069  71.4385462  45.2310562
  62.6904869  72.1270704  45.8527994  63.6731768  71.4023352  46.8522406
  58.1285858  69.9542952  42.9363823  58.4097099  70.9482861  42.1987486
  56.9986963  69.2319584  42.7866316  56.7549610  68.4659100  43.3980751
  55.9031630  69.5189524  41.7942286  56.3204813  69.4504595  40.7896137
  54.7927427  68.4341955  41.9796801  54.7591496  68.2157516  43.0470419
  53.4141445  68.7765217  41.3595152  53.5376835  68.9804411  40.2959108
  52.8041983  67.8746748  41.3071537  52.9698038  69.6292257  41.8728971
  55.1697397  67.1135426  41.2252140  55.2557135  67.2457647  40.1466799
  56.1263609  66.7627192  41.6123819  54.3828630  66.3831854  41.4136505
  55.3151989  70.8929777  42.1148157  54.9213791  71.5915012  41.1821270
  55.1560259  71.3265133  43.3607674  55.5039835  70.7692099  44.1278696
  54.5787287  72.6416206  43.6861658  53.6490917  72.8759956  43.1675768
  54.2126274  72.6013613  45.2115393  54.0483809  73.6672211  45.3698921
  53.2399654  72.1175671  45.3008366  54.9207926  72.1716022  45.9199953
  55.5638742  73.8376856  43.3122969  55.1590967  74.9784231  43.0935526
  56.8966532  73.4963989  43.2207203  57.0391464  72.5848722  43.6317062
  58.0967188  74.2224312  42.6872110  57.9840994  75.3028917  42.7767754
  59.2892313  73.8420391  43.5599232  59.5813179  72.7931356  43.5090685
  60.0908375  74.3927288  43.0677176  59.2636395  74.3150377  45.0033236
  59.1470098  75.3914928  44.8778534  58.3391047  74.1001844  45.5392075
  60.4609585  74.0724897  45.9254456  61.4542150  73.4347963  45.5969477
  60.5006599  74.6729994  47.0980787  61.2137604  74.5667982  47.8054047
  59.7703028  75.3173542  47.3654556  58.3639765  73.9186287  41.1742544
  59.2584181  74.5779514  40.5639982  57.5951958  73.1275702  40.4248953
  56.7496920  72.7141190  40.7913303  57.6441622  73.1193209  38.9952993
  58.6322260  72.8008842  38.6629915  56.6717052  72.0568419  38.5215139
  56.8088913  71.2066269  39.1896582  55.6546545  72.4365044  38.6192846
  56.9054031  71.8246365  37.0063472  56.5552473  72.6502800  36.3868284
  57.9644060  71.6848040  36.7893910  56.2426567  70.1546288  36.6831875
  54.4963694  70.5187559  36.8098879  54.2958546  70.5106401  37.8812575
  54.1108561  71.2795353  36.1311412  53.8687468  69.6999645  36.4580727
  57.3237658  74.4617605  38.3334374  56.2783384  75.0534105  38.7380981
  58.1725883  75.0801945  37.5058603  59.2363310  74.3757057  36.9099188
  58.8552809  73.3577776  36.8278980  60.0884676  74.2486763  37.5776219
  59.5553446  75.0708580  35.5884600  58.8106108  74.6718359  34.8997927
  60.6079435  75.0206852  35.3098655  59.1357517  76.5620995  35.9258676
  58.9663649  77.1694279  35.0367332  59.8637772  77.1003914  36.5327597
  57.8312731  76.2721539  36.7428565  57.8290749  77.0408249  37.5156760
  56.5120697  76.2196779  35.8823013  56.3727093  75.1975298  35.1544285
  55.6167507  77.2222090  36.0282207  55.7823086  77.9885960  36.6648865
  54.4027567  77.3387623  35.1609612  54.5088625  76.4504385  34.5382857
  53.1236506  77.0645332  35.9320235  53.0100346  77.7890921  36.7383814
  52.2563791  77.2604656  35.3015018  52.9850674  75.6458092  36.5426588
  53.2542133  74.9434566  35.7537580  53.6747980  75.5214548  37.3774672
  51.4914036  75.3678083  36.8313456  50.6480694  75.3390741  35.9366155
  51.0995007  75.1458836  38.0560255  50.1142836  74.9856234  38.2101750
  51.6848326  75.3688765  38.8483405  54.3418503  78.6179829  34.2983317
  54.4512510  79.7174072  34.9022102  54.2871571  78.5297775  33.0626178
  99.0034103  43.0083942  37.4756503  99.5163345  42.6898003  36.6660166
  98.8115215  42.2844028  38.1532335  99.5612907  43.7437391  37.8856969
  97.7215576  43.6342144  37.1114302  97.4456406  44.2081547  37.9960585
  97.8848267  44.7073650  35.9386897  96.9457626  45.2257395  35.7449079
  98.5968304  45.4492569  36.3002944  98.4370422  44.2568731  34.5418334
  99.4543743  43.8697433  34.5989823  97.7933025  43.4384823  34.2194343
  98.5032463  45.4225636  33.4771681  97.5679398  45.9563446  33.3086944
  99.3734932  46.0483885  33.6749578  98.6710453  44.8633289  32.0467782
  99.1016579  45.6451368  31.4211249  99.5048714  44.1627693  32.0919824
  97.4735928  44.1634321  31.4949179  97.7326393  43.9241076  30.5484891
  97.1724033  43.3292341  31.9781256  96.7033863  44.7942019  31.3245964
  96.6666794  42.6354218  36.8178153  96.9083405  41.4566326  36.4480853
  95.4533672  43.1209421  37.0399714  95.3497028  44.0763187  37.3507929
  94.2413139  42.2179365  36.8483663  94.3370152  41.4705849  37.6360273
  92.9550266  43.0975199  37.1890593  92.9384041  43.8988829  36.4503765
  92.1260738  42.4271107  36.9621515  92.8871059  43.7569857  38.5643578
  93.7466526  44.4142485  38.6958456  91.6415310  44.6012735  38.7461305
  90.7533741  43.9693832  38.7444997  91.5710354  45.0446558  39.7393799
  91.6691303  45.3996563  38.0045605  92.9018307  42.8233433  39.7148824
  91.9842339  42.2549677  39.5630312  93.7456989  42.1389532  39.6276355
  92.8278732  43.3291578  40.6775808  94.0981007  41.5601873  35.4942060
  94.3569565  42.1726465  34.4668841  93.6305428  40.3349733  35.5341053
  93.4273720  40.0112152  36.4689875  93.1193733  39.6319962  34.3944979
  93.8559914  39.7090936  33.5947776  93.0599117  38.1888413  34.7299886
  93.7570190  37.9047704  35.5183053  92.0358467  37.9977155  35.0507116
  93.3623600  37.4490833  33.5637569  94.0203571  36.7972159  33.8161635
  91.8775272  40.2991390  33.8765883  91.0584259  40.8730507  34.6065760
  91.5544987  40.2358246  32.6385427  92.2516441  39.7890234  32.0602250
  90.4397869  40.9488773  31.9985485  90.6177521  41.9992399  32.2291088
  90.6087685  40.6990147  30.4861927  91.6409969  40.7573414  30.1409221
  90.2040291  39.7521734  30.1287389  90.0074387  41.8079853  29.5301247
  90.4004002  41.6127825  28.5323405  88.9427185  41.5888643  29.4496989
  90.1865578  43.2434368  29.8850918  91.1882496  43.7728977  30.4664111
  89.2573929  43.9809275  29.5409656  89.0197849  40.7132721  32.4783158
  88.2308006  41.6520739  32.5172257  88.6553383  39.4627166  32.7569294
  89.2654324  38.6587238  32.7184033  87.3744488  39.2057371  33.3616400
  86.5214252  39.6794701  32.8758001  87.1960068  37.6978779  33.2974434
  86.3618183  37.4160647  33.9399552  87.0454693  37.4089074  32.2572851
  88.5063267  36.8289995  33.6609006  88.9945412  36.4757204  34.9236631
  90.2421284  36.0708857  34.8151684  90.9170723  35.9482336  35.6493187
  90.5984497  36.1743045  33.5076833  91.4059448  35.7000756  33.1293249
  89.4829369  36.5346694  32.7185726  89.4981766  36.6259694  31.6425419
  87.2865582  39.7365379  34.8027134  86.2469578  40.0868225  35.3171921
  88.4168434  39.7865605  35.4842663  89.2627048  39.4077659  35.0828481
  88.5702896  40.3578043  36.8518901  87.6539612  40.2594328  37.4339247
  89.6557808  39.6285391  37.6332521  90.5980206  39.5264935  37.0948482
  89.9830723  40.0974798  38.5611963  89.1790962  38.1465340  38.0342984
  88.5766602  37.6605415  37.2668386  90.4299068  37.2870803  38.2669997
  91.1250782  37.2219014  37.4299836  90.9958172  37.6260614  39.1347241
  90.1408195  36.2621713  38.4995675  88.4994221  38.1245184  39.5150948
  87.5869465  38.7204885  39.4970393  88.3124065  37.1152639  39.8818803
  89.2318535  38.5771966  40.1834679  88.6340904  41.9052792  36.9030643
  87.9538441  42.4599409  37.8319740  89.1598988  42.6349640  35.9097290
  89.6699429  41.9983292  35.3141975  89.2045498  44.1359949  35.7103634
  89.6897697  44.6236897  36.5558338  90.0445271  44.3990850  34.4505906
  90.9431744  43.7823105  34.4618106  89.4585991  44.0165091  33.6148739
  90.3793144  45.9085274  34.3690801  89.4672775  46.5010595  34.4412136
  90.9232426  46.0554981  35.3021622  91.1756611  46.3816118  33.1764460
  91.4697266  47.4247265  33.2928061  92.0158482  45.7067585  33.0128837
  90.3145409  46.1146069  32.0186925  90.3258419  45.1738548  31.6513276
  89.6103668  47.0188618  31.3230705  89.0698433  46.7438698  30.1571178
  89.2389870  45.7872438  29.8807740  88.5686207  47.4149847  29.5927882
  89.3840027  48.2210159  31.8086767  89.7305107  48.5517263  32.6978707
  88.9134598  48.9359474  31.2724328  87.7249813  44.6119499  35.6439853
  87.2551060  45.5306864  36.3245726  86.9258308  43.8950109  34.8773599
  87.3751259  43.0971336  34.4511867  85.4672527  44.0544796  34.8310971
  85.2310944  45.0758982  34.5327115  84.9495602  43.0229187  33.7899065
  85.4817772  42.9681301  32.8402567  85.0064564  42.0902586  34.3511677
  83.4821033  43.2611656  33.3386087  83.1597710  44.3477583  32.5202441
  83.9134979  45.0515270  32.1992922  81.8179703  44.6215630  32.1595359
  81.4948750  45.4125166  31.4989281  80.7447529  43.7435579  32.5870299
  79.4660425  44.1075706  32.3819447  78.8416529  43.3821964  32.4565983
  81.1063290  42.6042891  33.3673239  80.3934479  41.8831873  33.7390924
  82.4740505  42.3920870  33.6968160  82.7087975  41.5803576  34.3694162
  84.7689056  43.7971258  36.1708736  83.9830685  44.6141720  36.6057086
  85.0751114  42.7350426  36.9622302  85.9434986  42.3229122  36.6521382
  84.5697975  42.4730968  38.2983494  83.4832764  42.5304794  38.2328176
  84.8684978  41.0303736  38.7736964  85.9168720  40.7510805  38.8785887
  84.3413734  40.9112024  39.7202897  84.1120338  39.9189377  37.6023483
  85.0150681  40.2678108  36.6816378  84.9240780  43.5227966  39.3519664
  84.0692806  43.7957430  40.2348948  86.0695839  44.1055346  39.2528033
  86.6290855  43.7560558  38.4879994  86.4863300  45.2385330  40.0751495
  86.4963627  44.9342251  41.1217642  87.9320717  45.7426357  39.6159744
  88.5191154  44.8313046  39.5021129  87.9119110  46.1218977  38.5942841
  88.5770035  46.8032932  40.5901670  89.6453381  47.3364210  40.2293968
  88.1133175  47.0094824  41.6944265  85.5461597  46.3870096  40.0341511
  85.2938938  47.0824432  40.9951591  85.0798512  46.6951942  38.8243127
  85.3134727  46.0511875  38.0821705  84.0826416  47.7467823  38.6009955
  84.4457722  48.6534882  39.0848494  83.9412212  47.9552221  37.0943761
  84.8708344  48.1034374  36.5448713  83.5263157  47.0446205  36.6622186
  83.1214428  49.0807962  36.9047737  83.0925179  49.1974449  35.9523273
  82.7300453  47.3294115  39.1689396  81.9578743  48.2107353  39.5742297
  82.4226093  46.0101461  39.2352486  82.9341984  45.3427267  38.6758494
  81.2222195  45.5248737  39.9260020  80.3190517  46.0531521  39.6205354
  80.7845783  44.1476488  39.3866014  81.5686989  43.4153223  39.5788026
  79.4973326  43.5327530  40.0790310  79.8322439  43.2369661  41.0732365
  78.8053656  44.3736506  40.1257181  79.0694618  42.6793289  39.5530128
  80.5651283  44.3676710  37.8742719  79.7671175  45.0958490  37.7292228
  81.4169598  44.8291683  37.3747683  80.4745579  42.9944563  37.2179246
  79.4842672  42.6121092  37.4653840  80.4087734  43.1070375  36.1357498
  81.2491226  42.2533989  37.4153829  81.2748623  45.5838823  41.4860487
  80.2812481  46.0154581  42.0548773  82.3955631  45.3180695  42.0794296
  83.1334400  45.0134325  41.4606905  82.6949978  45.5672979  43.5280132
  81.8797016  45.0491714  44.0329361  83.9242172  44.6972704  43.8960695
  83.6812019  43.6416817  43.7745047  84.7083759  44.9253941  43.1741619
  84.4296837  44.9566031  45.2972603  84.3324757  46.0107374  45.5569839
  83.5921764  44.1813278  46.3858080  84.0283585  44.2806721  47.3797798
  82.5936604  44.6158743  46.3384581  83.4929085  43.1442070  46.0654402
  85.9258175  44.5828342  45.4535437  86.0539150  43.5536098  45.1182938
  86.5007973  45.3396320  44.9199152  86.1888123  44.6159935  46.5108204
  82.6973724  47.0926332  43.9043331  82.2314358  47.4207973  45.0213671
  83.1163216  47.9423428  42.9828787  83.5304260  47.6623392  42.1052599
  82.9259872  49.3994999  43.1121731  83.2012272  49.6181011  44.1439438
  83.7188721  50.2298021  42.0826912  83.4875679  49.7872353  41.1138105
  83.2904625  51.2288284  42.1634197  85.2392769  50.1476526  42.3244715
  85.4075813  50.8275986  43.1596041  85.5194378  49.1584015  42.6864004
  86.1444187  50.4313660  41.1486101  85.7505989  49.7688150  40.3778696
  86.1284256  51.4700222  40.8183908  87.5504780  50.0768661  41.2621689
  87.7080536  49.0892029  41.4028740  88.6154461  50.7158852  40.9913969
  88.6693478  51.9973087  40.6877708  87.7681065  52.4436951  40.5950117
  89.5564556  52.4776411  40.7371378  89.7692680  50.1001072  40.9408236
  89.8300457  49.0924978  40.9069872  90.4999161  50.6676388  40.5356550
  81.3898945  49.6933317  43.1205273  80.8844376  50.4529953  43.9412308
  80.6172562  49.1378307  42.1679783  81.0599518  48.6817360  41.3830614
  79.1636753  49.2720127  42.1555185  78.9615488  50.3359461  42.0318794
  78.5037565  48.6060095  40.9665537  79.0501881  48.9758348  40.0989437
  78.7367916  47.5474024  40.8519220  77.0401239  48.9171743  40.6147099
  76.7435598  48.2705927  39.7888231  76.3540125  48.6662769  41.4236593
  76.7043829  50.3704929  40.2692223  75.5002499  50.6768084  40.0565815
  77.6742935  51.1617184  40.1756287  78.5854483  48.8569689  43.5157967
  77.7886248  49.6176291  44.0591478  78.9321232  47.6546049  44.0237188
  79.4610643  46.9745827  43.4965611  78.2847214  47.1065855  45.1894522
  77.2049999  47.1053934  45.0401115  78.6156034  45.6710482  45.3355026
  79.6832800  45.4700661  45.4236794  78.1844234  45.3128386  46.2703133
  77.8713799  44.8391199  44.2216063  76.7994738  44.9546146  44.3821526
  78.1825876  45.1571512  43.2265615  78.2928848  43.0989027  44.4691944
  76.8296385  42.6227713  45.4576540  75.8662558  42.9245520  45.0466442
  76.8072605  41.5576887  45.6882906  76.9736195  43.1928921  46.3754416
  78.5700512  47.8651953  46.4224482  77.8219414  47.7951574  47.3612738
  79.6575594  48.5757828  46.4145947  80.2926826  48.4322643  45.6425095
  80.1185894  49.4344091  47.5490713  79.6404266  49.0560865  48.4525824
  81.6417313  49.3528509  47.7416182  82.1248150  49.7963524  46.8709660
  81.9016457  49.9394035  48.6228132  82.2305489  47.9230881  48.1680393
  81.7794228  47.1496630  47.5464296  83.7242985  47.8601122  48.0063486
  84.3193436  48.5795355  48.5689068  84.0576744  46.8308306  48.1387949
  83.9022064  48.2631302  47.0093393  81.8850613  47.6190710  49.6311140
  82.3176956  46.6536379  49.8935318  82.3316479  48.3982897  50.2487516
  80.7951450  47.6071405  49.6378136  79.7294474  50.9016514  47.4356318
  80.0234032  51.7084503  48.2592630  79.1348982  51.2857676  46.3021755
  78.9616823  50.5375433  45.6462336  78.8788128  52.6839256  45.9415579
  79.8607731  53.1420994  45.8235025  78.3176279  52.8836870  44.5041275
  78.2790279  53.9207506  44.1708088  79.0869570  52.4792767  43.8463354
  77.0727253  52.2071791  44.2389822  77.3069668  51.2762022  44.2352057
  77.8600693  53.3232450  46.9111109  77.0225573  52.6264811  47.5260973
  77.9533625  54.6687651  47.1146870  78.7293720  55.1318693  46.6636324
  77.1659708  55.3750849  48.1873894  77.2446394  54.7844982  49.1001463
  77.7560616  56.7849970  48.4235573  78.8365269  56.8271732  48.5611057
  77.4290943  57.4522018  47.6260424  77.0978785  57.4953556  49.6641302
  77.5801182  58.4614897  49.8128939  76.0201788  57.6433992  49.5952082
  77.3883295  56.7992687  51.0377550  76.6468811  56.0019827  51.0895777
  78.3483696  56.2831259  51.0335970  77.2500324  57.8361177  52.1589518
  77.9650402  58.6493111  52.0340919  76.3058996  58.3808041  52.1539021
  77.6071072  57.2504950  53.4892416  77.2336769  57.8467846  54.2138767
  77.1709061  56.3604212  53.6831427  78.6042023  57.1311331  53.5971928
  75.6585550  55.4691887  47.8129768  74.8243093  55.4765081  48.6999559
  75.3775597  55.3999043  46.5169191  76.1294460  55.4703522  45.8462477
  74.0177250  55.3009462  45.9754658  73.4992886  56.0635233  46.5566778
  73.9949799  55.7189178  44.4563341  72.9700470  55.7828569  44.0909100
  74.3996239  56.7062521  44.2337561  74.6119165  54.6214294  43.5923100
  75.6551313  54.5050335  43.8859940  74.0930510  53.6731243  43.7322712
  74.6188879  54.9781513  42.0684242  73.5884190  55.2283907  41.8161869
  75.3356504  55.7970190  42.0067644  75.0618315  53.8369989  41.2420797
  74.3387890  53.0236101  41.3030291  74.9374628  54.1569853  40.2075577
  76.4151192  53.2658291  41.3838863  76.4540243  52.9662132  42.3476458
  76.5665245  52.4035740  40.8802032  77.1054077  53.9520359  41.1142302
  73.2992458  54.0315151  46.3094330  72.1216917  54.0895367  46.3509274
  74.0584135  52.9525042  46.5010595  75.0512552  53.0004120  46.3219738
  73.4458494  51.6843843  46.9741154  72.3869896  51.6493416  46.7178011
  74.0258312  50.4681730  46.2101984  75.1082802  50.4323244  46.3331652
  73.6463308  49.5303440  46.6158438  73.6621523  50.4420805  44.7578859
  72.4701452  50.9048843  44.2352295  72.5735664  50.8565807  42.8776407
  71.8310118  51.1949873  42.1701860  73.7609577  50.3022671  42.5462914
  74.1042614  50.1302481  41.6121340  74.3958187  50.0401926  43.7236786
  75.3920078  49.6341228  43.8191795  73.4518099  51.5691710  48.5530663
  72.6464033  50.7502937  49.0516710  74.1607666  52.5008488  49.2464066
  74.9113750  52.9972124  48.7878132  74.4085932  52.2560787  50.7265997
  74.8836231  51.2928486  50.9127140  75.4050541  53.2851887  51.1016941
  74.8543549  54.2113113  51.2663937  75.8889389  52.8968048  51.9978619
  76.1061811  53.4872675  50.2919483  73.2044220  52.2201061  51.6726208
  73.0535984  51.5295506  52.6885128  72.1712065  52.8975439  51.2193203
  72.1886969  53.3777475  50.3309488  70.8883047  52.8575754  51.9282961
  71.0746861  53.3040333  52.9050493  69.9293613  53.7769127  51.2308407
  69.5106840  53.3457470  50.3214979  69.1719723  54.1124535  51.9392776
  70.5149078  54.6463394  50.9319401  70.3823805  51.4166784  52.1721745
  69.7019005  51.0944319  53.1700373  70.6641245  50.4749203  51.2243557
  71.3636351  50.6758595  50.5240631  70.3850412  48.9720345  51.4932585
  69.8625040  48.8831902  52.4457121  69.3234062  48.5873413  50.4516029
  69.0106392  47.5877142  50.7532978  68.4729576  49.2484713  50.6181669
  69.6436262  48.6164856  48.9289904  69.7646999  49.8373032  48.2651520
  69.6847057  50.7248831  48.8752413  70.0889301  49.9393463  46.8978834
  70.1593208  50.9351969  46.4859056  70.2888441  48.7271786  46.1488390
  70.5466747  48.8438749  44.8392630  70.9961653  49.6834898  44.7184086
  70.1746845  47.4987411  46.8031883  70.4544449  46.6479301  46.1996508
  69.7915983  47.4437523  48.1762600  69.7724771  46.4897585  48.6821508
  71.5775871  48.0016613  51.3486481  71.4906597  46.8248177  51.6539526
  72.7393341  48.4892368  50.9220409  72.7495480  49.3779898  50.4423380
  73.9932156  47.7485037  51.0154963  73.8290262  46.7442274  50.6248903
  75.0032091  48.3673668  50.0623083  74.4531107  48.7626076  49.2083311
  75.4441404  49.2647266  50.4963875  75.8053017  47.6817226  49.7890902
  74.5666933  47.5559855  52.4518728  75.4013681  46.7078495  52.7181530
  74.1082716  48.3202171  53.4667730  73.4346676  49.0539217  53.2993174
  74.8255062  48.4175205  54.7582483  75.8581400  48.6430025  54.4919395
  74.3252611  49.5948839  55.6395674  75.0085926  49.6379375  56.4876842
  74.4023609  50.4257965  54.9383259  72.8499651  49.4663763  55.9802198
  71.7836857  50.0670290  55.3810358  71.7918539  50.6853580  54.4955921
  70.5926800  49.7180319  56.0196924  69.6795273  50.0807571  55.7858515
  70.8051109  48.9420557  57.1146107  70.0321627  48.4416485  58.1868649
  68.9643002  48.5885096  58.2539606  70.5689240  47.8871632  59.3162203
  69.9917650  47.5357056  60.1586962  71.9556713  47.7126074  59.3221426
  72.3796463  47.3074675  60.2290630  72.7544308  48.1612730  58.2714844
  73.8207722  48.2229376  58.4312296  72.2175169  48.7841749  57.1137094
  74.9413061  47.0622015  55.5118084  75.9278631  46.8058825  56.2251139
  73.9439440  46.1221027  55.3930521  72.5959873  46.2390041  54.8924255
  72.6056290  45.8707762  53.8665533  72.2586346  47.2582674  55.0805426
  71.6776562  45.2944613  55.7104731  70.8371544  44.9468994  55.1097584
  71.3191986  45.8600807  56.5705204  72.6264429  44.1449881  56.1546564
  72.5158405  43.3917856  55.3745604  72.4224806  43.7972021  57.1673441
  74.0431976  44.7892475  56.0718489  74.3260765  45.1177597  57.0719290
  75.0227261  43.8816500  55.4032850  75.5563736  42.9069090  56.0170984
  75.4052734  44.2644501  54.1644764  74.9512434  45.0612307  53.7412691
  76.4233732  43.5552454  53.3506250  76.5177298  42.6133442  53.8910246
  75.7696199  43.1926537  52.0484924  75.9502029  43.7904882  51.1551380
  76.4279509  42.3756933  51.7530489  74.3824911  42.6003313  52.0703650
  74.2301750  41.1727333  52.1921062  75.0865936  40.5568647  51.9604635
  72.9818296  40.5556154  52.4970531  72.8792667  39.4810557  52.5316763
  71.8547106  41.4147425  52.5170231  70.8588791  41.1017418  52.7940655
  71.9962120  42.8254604  52.3532438  71.1889458  43.5424709  52.3781204
  73.2852173  43.3775377  52.1637106  73.3613348  44.4540024  52.1209192
  77.8682899  44.1617393  53.2675934  78.7144232  43.4801292  52.6594496
  78.0776882  45.3404474  53.8203430  77.2511387  45.8660221  54.0666723
  79.3400621  46.0649252  54.1002655  79.8756027  46.1505318  53.1547642
  79.0833759  47.5282192  54.4741488  78.3659410  47.5494289  55.2944803
  80.0057697  47.9671526  54.8544598  78.6712790  48.4427834  53.3479643
  78.4452486  47.9602480  52.0595264  78.4973049  46.9135189  51.7986584
  78.1544542  48.8580561  50.9884071  78.0105066  48.4950304  49.9814844
  77.9683733  50.1852846  51.2655020  77.6067591  51.0904503  50.3479719
  77.6848078  50.7774353  49.4437981  78.2127810  50.6435919  52.5948572
  77.9659843  51.6692591  52.8261423  78.6240816  49.7892666  53.6411095
  78.8691998  50.1374102  54.6336365  80.2381706  45.3217602  55.0697756
  81.4294338  45.6056118  55.0687695  79.6885777  44.4507599  55.9429455
  78.7218046  44.1760063  55.8431482  80.3821754  43.8701725  57.1106052
  81.4509487  43.9078522  56.8998861  80.1755333  44.7122145  58.2920218
  79.1262245  44.9632978  58.4469795  80.4343987  44.1262054  59.1738844
  81.0214138  46.0346127  58.2799053  82.0523739  45.7900858  58.0241156
  80.6106186  46.7112160  57.5305414  80.9733486  46.6528511  59.6754694
  79.9520254  46.8365479  60.0090218  81.4146900  45.9484005  60.3804922
  81.8573284  47.8582239  59.6933937  82.8951645  47.5595951  59.5456839
  81.5082264  48.5809803  58.9559317  81.8277550  48.5041618  61.0271263
  80.8877373  48.5562944  61.3928461  82.4243355  48.0639887  61.7130136
  82.2601414  49.4169044  61.0212040  80.0116825  42.4011135  57.4614859
  78.8090038  41.9900465  57.2654152  80.8675861  41.6001987  58.1269455
  82.2249889  41.8271446  58.4301329  82.4725342  42.8750563  58.5995388
  82.8841591  41.4074373  57.6702356  82.5748634  41.0743999  59.7489357
  82.1566677  41.5825129  60.6178617  83.6558723  40.9573746  59.8252153
  81.7951202  39.7689962  59.5387983  81.5816498  39.3089437  60.5036211
  82.3783684  39.0868616  58.9202404  80.4753494  40.3357553  58.8167429
  80.0009823  39.6458125  58.1188440  79.3321896  40.6052876  59.8728132
  79.2815304  41.6652441  60.4580355  78.3942652  39.6617985  60.0594711
  78.4625053  38.9065409  59.3923664  77.2749090  39.7649097  61.0369968
  76.7742777  40.7125759  60.8385038  76.1636782  38.6836100  60.8879471
  76.6866255  37.7873921  61.2217474  74.9041653  38.9013577  61.7809057
  75.2715969  38.8494968  62.8057957  74.3533993  39.8240852  61.5983295
  74.2027140  38.0979753  61.5558434  75.7778358  38.5519266  59.4452524
  76.6150808  38.5565519  58.7473297  75.2317381  37.6109934  59.3779993
  75.0113487  39.2736602  59.1629410  77.8889656  39.8109102  62.4785328
  78.7135077  38.9301991  62.8299713  77.3452711  40.7274246  63.2390594
  76.6651154  41.3600826  62.8425360  77.8656530  40.9229946  64.6172714
  78.9144373  40.6415224  64.7118521  77.7259398  42.4501848  64.9206543
  78.2539606  42.8943348  64.0768337  76.7193174  42.8511810  64.8022842
  78.5305548  42.8437901  66.1618567  78.6767149  44.1000128  66.3187265
  79.1292191  42.0240688  66.9834137  77.0211124  40.1106930  65.5951548
  76.0979509  40.5924940  66.2916994  77.2834063  38.7967753  65.5967569
  77.9167223  38.4783340  64.8773146  76.5335751  37.7926922  66.3807726
  75.4780197  37.9702926  66.1749458  76.9247580  36.4318109  65.8948278
  76.7908955  36.3552809  64.8157835  78.0012989  36.4107466  66.0642910
  76.5570879  35.6133771  66.5137625  76.6305351  37.9807186  67.8697109
  75.7322645  37.7896881  68.6578989  77.8384876  38.3700609  68.3858633
  78.5643053  38.3879757  67.6837492  78.1083202  38.9740634  69.6815777
  78.0002356  38.1468439  70.3830957  79.5660353  39.6151972  69.6021271
  80.2292728  38.8579679  69.1840076  79.5239735  40.4781294  68.9375401
  80.0577354  40.0194311  71.0448313  80.8325672  40.7850361  71.0050297
  79.2043638  40.3472090  71.6384792  80.5658817  38.7394142  71.6836882
  79.8185873  37.9617119  72.2431993  81.8140697  38.5322809  71.6071033
  77.1101236  40.0796175  70.1231050  76.4133310  39.8812628  71.0907602
  76.9719982  41.0961914  69.3032169  77.6446342  41.1477947  68.5515499
  76.2636852  42.2738647  69.6545649  76.3551474  42.3864317  70.7348776
  76.8275213  43.5013914  68.9726973  76.5906525  43.3671522  67.9172468
  76.4099979  44.4318056  69.3575335  77.9059172  43.5317802  69.1284084
  74.7267294  42.1347666  69.3309879  73.9183378  42.7665663  70.0151300
  74.3839550  41.2234879  68.3933830  75.1245546  40.7476330  67.8982353
  72.9952669  41.1052275  67.8738928  72.4432945  42.0108891  68.1252956
  72.9256344  40.8897972  66.3827753  73.5524464  40.0466824  66.0923195
  71.8932486  40.6011486  66.1853695  73.1466532  42.1521282  65.5808735
  73.8135481  42.8289604  66.1149645  73.8278532  41.7424154  64.2818832
  74.2173290  42.6552963  63.8312674  74.6554852  41.0555744  64.4590044
  73.2069921  41.2032127  63.5664225  71.9527817  42.9731035  65.1895618
  72.0773697  43.6203623  64.3214369  71.1260509  42.2968054  64.9722195
  71.6568947  43.4914970  66.1016035  72.2749472  39.9157619  68.6207485
  71.1499453  39.5118785  68.2527781  72.8653669  39.3155003  69.6473885
  73.6557865  39.8350430  70.0015306  72.3418140  38.0777144  70.3664255
  73.0846214  37.6147175  71.0160160  71.0873175  38.4249592  71.3035774
  70.2519894  38.7071800  70.6627274  70.7374907  37.5700116  71.8821907
  71.3187456  39.5614958  72.2681808  71.5916872  40.4375648  71.6798782
  70.4047346  39.9191737  72.7422619  72.3202467  39.2644835  73.4001446
  72.3842096  38.1534386  73.9621878  73.1848288  40.1735640  73.6298418
  71.9647121  36.9407892  69.3380976  70.9548759  36.2367368  69.5500994
  72.7958345  36.7427802  68.3490086  73.6860704  37.2190976  68.3757019
  72.6187038  35.7956958  67.2569418  71.6139126  35.3740549  67.2301722
  72.9210186  36.4376760  65.8969736  73.9047432  36.9071221  65.9007835
  72.8696489  35.6837559  65.1114416  71.8914461  37.5004458  65.6000471
  72.0635271  38.3291769  66.2868500  72.2653818  37.9637456  64.2242289
  73.1398535  38.6115551  64.1630697  72.5088358  37.0442080  63.6919832
  71.5154648  38.5640025  63.7090397  70.4263020  36.9739151  65.7139587
  69.7548151  37.7159405  65.2819872  70.3535795  35.9805298  65.2712345
  70.0879145  36.9833708  66.7500591  73.5408306  34.5440531  67.5589657
  74.4442081  34.2098236  66.8104839  73.3783817  33.9012527  68.7318659
  72.5563002  34.2135048  69.2286396  74.1636848  32.7751517  69.3591452
  75.2054691  33.0941224  69.3914032  73.7370062  32.5547290  70.8370590
  72.6699257  32.3339415  70.8107615  74.3144464  31.6922045  71.1698151
  73.9587212  33.7676048  71.7613506  75.1415920  34.2054367  72.3540068
  74.7978973  35.1326370  73.2767344  75.5078459  35.8548069  73.6520195
  73.4765911  35.3024793  73.2941675  72.9389763  36.0600924  73.6905146
  72.9740143  34.5593524  72.3575211  71.9246340  34.3660593  72.1906662
  74.0723181  31.4757681  68.5762358  74.7368431  30.5398393  68.9046574
  73.2094765  31.3447714  67.5403166  72.6556396  32.1566486  67.3074484
  73.3017159  30.1563072  66.6284990  73.9815283  29.3992066  67.0193338
  71.8911123  29.5481372  66.5704584  71.9766188  28.9111733  65.6900787
  71.6083145  29.0437675  67.4944401  70.7303143  30.5448270  66.3201952
  69.5859241  30.0473714  66.3446569  70.9278917  31.7086983  65.8887148
  73.9226913  30.4830384  65.2490091  74.2131758  29.5919847  64.4719076
  74.2664194  31.7593884  65.0162220  74.1007090  32.5310254  65.6464720
  75.0320864  32.1043730  63.8163853  74.3953228  31.8873119  62.9587603
  75.2197933  33.5759854  63.7854767  74.2724991  34.1032052  63.8984966
  75.7724428  33.9015150  64.6667862  75.8179140  34.1971016  62.4808502
  77.1742249  34.2446494  62.1999788  77.8325510  34.0171552  63.0253553
  77.6994181  34.6466923  60.9289026  78.7390661  34.7495937  60.6551409
  76.7915201  35.0109100  59.8905802  77.1522474  35.4099131  58.6803293
  77.8755951  36.0288215  58.8040924  75.3777266  34.9275565  60.1940489
  74.6647310  35.3558254  59.5051146  74.9163532  34.5164657  61.4598465
  73.8473225  34.4294047  61.5862989  76.2818480  31.2083578  63.6197710
  76.5163994  30.6941366  62.5064039  77.1243811  30.9952688  64.6465302
  76.7701626  31.3246536  65.5331707  78.3756447  30.2191687  64.5533657
  79.0087652  30.7302094  63.8280439  79.1927004  30.3795767  65.8522606
  79.0795279  31.4434290  66.0608435  78.8164949  29.8477364  66.7261696
  80.6193352  30.1222372  65.6493950  81.1266613  28.8479900  65.6981802
  82.3841763  28.9610386  65.2988434  83.0919933  28.1460786  65.2636766
  82.6475525  30.2767873  64.9409342  83.5496330  30.6016278  64.6233940
  81.4981461  30.9873796  65.0796080  81.3539314  32.0297933  64.8367596
  78.1447220  28.7251997  64.1997814  79.0771580  28.1226063  63.7515020
  76.9506073  28.1838608  64.3865347  76.2334394  28.8581204  64.6126938
  76.6739035  26.7841578  64.0258408  77.5927973  26.2096000  63.9091301
  75.8840656  26.0904336  65.1145363  76.0497808  26.4905620  66.1148071
  74.8040247  26.0858583  64.9675941  76.1793995  24.6029878  65.2874279
  76.8265009  24.0046930  64.3949890  75.8125019  24.0767980  66.3797808
  76.0066748  26.6599560  62.6197529  76.3764763  25.7850552  61.8518114
  75.0521898  27.5210977  62.3034954  74.7369003  28.2522297  62.9249048
  74.2695236  27.4899459  61.0903311  73.9973211  26.4534283  60.8912420
  72.9939699  28.2619882  61.2182999  73.1937075  29.2738128  61.5710258
  72.2316837  28.4230804  59.8737907  72.0704365  27.4064183  59.5153284
  71.2677765  28.9118910  60.0153685  72.8272247  28.9618897  59.1368246
  72.0510054  27.7016878  62.2995663  71.6524220  26.7250109  62.0250893
  72.6092339  27.5828481  63.2281971  70.8383179  28.5356545  62.5983286
  70.2447701  28.0430055  63.3684587  71.1482143  29.5365262  62.8988600
  70.2260590  28.5704803  61.6972017  75.1670361  27.9232574  59.8972464
  75.1990414  27.1346116  58.9470768  75.7464027  29.0779233  59.9006891
  75.6155014  29.6587420  60.7165384  76.5820694  29.5008731  58.7959766
  76.1359167  29.1716003  57.8575516  76.5535641  31.0808492  58.6573744
  76.9316721  31.5100765  59.5852232  77.3807669  31.5103555  57.3679447
  77.4918795  32.5934911  57.3172235  78.4312105  31.2593174  57.5150967
  76.9142246  31.1885643  56.4368773  75.0969219  31.5626025  58.5427475
  74.6882439  31.4779425  59.5496798  75.1740074  32.6428509  58.4193563
  74.1584158  31.0309339  57.4646473  74.5885038  31.1863065  56.4752150
  73.9566660  29.9620652  57.5347662  73.1928444  31.5360641  57.4398279
  78.0179167  28.9295936  58.8546562  78.8489962  29.5827913  59.5373678
  78.3508253  27.8569913  58.1923771  77.6633835  27.4228311  57.5931883
  79.7013760  27.3045039  58.0890703  80.0664330  26.9465709  59.0517330
  79.5072556  25.9760308  57.3269415  79.3147326  26.2607265  56.2925434
  80.5117702  25.5657983  57.2231531  78.5732794  24.9279189  57.9027367
  77.5287008  25.2134442  57.7784872  78.6948061  23.9753556  57.3870277
  78.7212229  24.5058560  59.3699980  79.7223139  24.0936399  59.4964933
  78.6190224  25.3719187  60.0239038  77.6986599  23.3429718  59.5370483
  77.7823448  22.5442052  58.8001156  77.9303074  22.8395343  60.4756594
  76.3275719  23.8152671  59.6978188  75.7460308  23.0971336  60.1054859
  76.2421560  24.6329999  60.2844334  75.8483171  24.0248728  58.8338280
  80.8369923  28.1918287  57.4817705  81.8585205  28.4125590  58.0429363
  80.5615711  28.7884140  56.3036203  79.6381855  28.6161232  55.9324265
  81.4131927  29.7165704  55.5242729  82.3833942  29.7098303  56.0210323
  81.5488529  29.0886879  54.1207409  80.6614494  29.2051864  53.4986210
  82.3951817  29.5744801  53.6351109  81.8206120  27.5754905  54.1002989
  80.8654499  26.5325451  53.9294291  81.4800644  25.3550792  53.9824915
  81.0423470  24.3705344  53.9084625  82.7688599  25.6052876  54.3170547
  83.4355354  24.8469090  54.2947054  82.9677868  26.9649529  54.4611073
  83.9086342  27.4870706  54.5538807  80.8455563  31.1462092  55.5062628
  80.1292133  31.4741874  54.6018505  81.1435699  32.0089364  56.4768791
  81.6447353  31.6382623  57.7691650  82.7244282  31.5032506  57.7048731
  81.1852837  30.7244134  58.1458473  81.3407040  32.7379227  58.7443972
  82.1127224  32.8412437  59.5068979  80.3526783  32.6229191  59.1901302
  81.2728310  33.9592433  57.8127909  82.3022175  34.2811680  57.6552343
  80.5929279  34.7674441  58.0823135  80.7872200  33.4049320  56.4405203
  79.7070265  33.4435725  56.2998009  81.4685249  34.2309499  55.2540588
  82.5528240  33.7852454  54.7906017  80.9306622  35.3753543  54.8177862
  80.1925755  35.7142353  55.4182005  81.2991428  36.0163522  53.5929489
  82.3737144  36.1735082  53.6861277  80.8948612  35.0888538  52.3744249
  81.4310074  34.1409183  52.4198914  79.8429775  34.8365188  52.5084829
  81.3854122  35.7557654  51.0705614  81.4373684  34.9963069  50.2904177
  80.7580280  36.6084385  50.8108711  83.1156349  36.4381099  51.1728001
  83.9293003  34.8614001  51.6008186  83.4346199  34.0290117  51.1002922
  85.0030804  34.8339748  51.4154816  83.7932491  34.6040940  52.6512384
  80.5231094  37.3529720  53.4764814  79.3823862  37.4775934  53.9120388
  81.1325550  38.3826351  52.9091787  82.0305538  38.2025099  52.4834442
  80.6365585  39.7841740  52.8099203  79.5871544  39.6556163  52.5447512
  80.6212711  40.5539560  54.1235447  80.0726318  41.4947128  54.0779972
  80.0771618  39.9198842  54.8235464  82.0488358  40.7072258  54.6571302
  82.5755596  41.8211031  54.4193220  82.6757526  39.8040175  55.3402615
  81.4394951  40.5344486  51.8095589  82.5479984  40.1003265  51.4892387
  80.9841537  41.7257071  51.4171410  80.1299953  42.0928240  51.8117952
  81.7908192  42.6285219  50.4478979  81.9142437  41.9415188  49.6107006
  80.9441376  43.8479328  50.0621223  80.7694435  44.4940710  50.9224033
  81.4835072  44.4919348  49.3675423  79.5425797  43.5034895  49.4692421
  79.0393400  42.7696991  50.0988436  79.0306044  44.9067831  49.3946218
  79.6696329  45.5799913  48.8231993  78.1455946  44.9215508  48.7585163
  78.7548685  45.2579117  50.3890038  79.7130203  42.9026651  48.1174946
  78.6907244  42.7977657  47.7541733  80.3867340  43.5426235  47.5477028
  80.1138496  41.8936253  48.2138252  83.1437302  43.0741358  50.9099245
  83.8901901  43.4495306  49.9966621  83.4790516  43.1606579  52.1933222
  82.8883171  42.7338219  52.8925705  84.8245811  43.4828186  52.6423550
  85.1666355  44.1790533  51.8766117  84.9497414  44.2314005  53.9648485
  85.9807110  44.5579147  54.1012192  84.3692017  45.1459312  53.8436031
  84.5009232  43.5323858  55.1058674  83.6549854  43.1461859  54.8674774
  85.7195473  42.2475672  52.6387739  86.9183826  42.3686552  52.3286915
  85.1729774  41.0128593  52.7943373  84.2189789  40.9458733  53.1191540
  85.9302425  39.7147107  52.6315689  86.8373775  39.8261118  53.2255220
  85.0979996  38.5627484  53.2598829  84.1046429  38.5225916  52.8129673
  85.6832314  37.1588683  53.3096123  85.1254463  36.4755654  53.9499807
  85.8343697  36.8322945  52.2807217  86.6961670  37.2091866  53.7090254
  85.0367355  38.7227941  54.6550703  84.3205166  39.3367267  54.8331785
  86.2307358  39.4956613  51.1050272  87.4066830  39.3249202  50.7422781
  85.2412796  39.6463680  50.2502728  84.3430138  39.8473120  50.6660318
  85.3886223  39.8092818  48.7486458  85.7982922  38.8739729  48.3672380
  84.0549088  40.1333332  47.9881716  83.5532570  41.0819197  48.1795931
  84.3823719  40.2471304  46.4426422  83.4518528  40.2371788  45.8750677
  84.9004936  41.1995459  46.3305759  84.9198246  39.3460727  46.1471224
  83.1247330  38.9666700  48.1029272  82.1592140  39.0959573  47.6138926
  83.5233212  38.0584860  47.6507902  82.7247906  38.8982320  49.1145945
  86.5626335  40.8113909  48.5026693  87.5117207  40.4889154  47.8085232
  86.5268040  42.0021725  49.1171694  85.6497955  42.2185564  49.5689964
  87.4769783  43.0678272  48.7395573  87.5365734  43.1457138  47.6539755
  87.0497131  44.3792772  49.3570232  86.0090065  44.5204067  49.0652990
  87.2564507  44.4134712  50.4266882  87.8393459  45.5836630  48.7287283
  88.8976860  45.4280567  48.9380360  87.7791405  45.6358814  47.6416445
  87.4293232  46.8802547  49.3796539  86.5668011  47.3194742  48.8784218
  87.3141193  46.6864443  50.4460812  88.6086559  47.8583622  49.3238926
  88.4142876  48.6890221  50.0023603  89.5202160  47.3775530  49.6788311
  88.8777065  48.3113050  47.9568434  89.5981979  49.0083790  47.8339767
  89.1633129  47.5018740  47.4245358  88.0130577  48.7197208  47.6317596
  88.8986588  42.7055168  49.1402197  89.8471832  43.0296993  48.4278011
  89.0381336  42.0632267  50.3242445  88.1991291  41.8959522  50.8610678
  90.3199100  41.5612316  50.9036493  91.0908985  42.3290443  50.9679604
  90.0810337  41.1043072  52.3006916  89.9929810  42.0816278  52.7752399
  89.2511749  40.4138184  52.4512339  91.3162041  40.5041170  52.9443741
  91.3885498  39.4886446  52.5549173  92.2087097  41.1176825  52.8215408
  91.0349178  40.4201174  54.5057487  91.9832230  40.1408815  54.9649191
  90.7023048  41.3710117  54.9220037  90.0356865  39.3933845  54.8752117
  90.3366756  38.4442067  54.7062016  88.8166904  39.4793081  55.2862167
  88.1232834  38.4085727  55.4535818  88.6184120  37.5926471  55.7840538
  87.1554661  38.3492923  55.7362604  88.2060337  40.6342077  55.3884554
  88.8018513  41.4423418  55.2788162  87.2177601  40.6338978  55.5968380
  90.9266949  40.4507923  50.0217485  92.1211624  40.5209541  49.7750950
  90.1273251  39.5692754  49.4300985  89.1509438  39.5347357  49.6862030
  90.5600166  38.6335230  48.3883142  91.4547157  38.0759144  48.6652422
  89.4220543  37.5851703  48.2834244  88.4701633  38.1099963  48.2023621
  89.5088482  37.0106530  47.3612022  89.4635201  36.7314744  49.5496845
  90.4106998  36.2176347  49.7137403  89.1636562  37.3452091  50.3991079
  88.3697605  35.6483817  49.4475174  88.0917358  35.4710317  50.4864359
  87.4505901  36.0826111  49.0542316  88.7538338  34.4575262  48.6470556
  88.7635136  34.5910811  47.5653124  89.7494602  34.1561198  48.9725924
  87.7397060  33.4161663  48.9432287  87.5419331  33.3040905  49.9273157
  86.8318748  33.6952925  48.5996675  87.9498959  32.4794149  48.6295128
  90.8937550  39.3273020  47.0127821  91.8914604  38.8820195  46.3939857
  90.1876831  40.3404665  46.5675497  89.3036938  40.5798578  46.9934082
  90.6056690  41.1442375  45.3927422  90.7785320  40.4776573  44.5478201
  89.4984531  42.1351528  45.0377750  89.3521595  42.6840305  45.9680653
  89.7973824  42.8635311  44.2839766  88.2194710  41.5476561  44.6171331
  87.7278233  40.8770990  45.3219271  87.5357246  42.3957825  44.5815277
  88.1408310  40.6770134  43.1138277  88.3439350  41.9988775  41.8540144
  89.1341591  42.7041769  42.1113062  88.2680893  41.6209459  40.8344460
  87.4559116  42.6289749  41.9038963  91.9670105  41.8396854  45.5341816
  92.8833008  41.6703033  44.7108269  92.1693039  42.5333786  46.6385794
  91.2835693  42.7561712  47.0697832  93.4152603  43.1794071  47.1434307
  93.6470127  43.8655472  46.3288164  93.2060528  43.9246559  48.5108948
  92.6937962  43.4122133  49.3252039  94.1977692  44.0558720  48.9437675
  92.5034809  45.2709436  48.4258270  92.1857262  45.9061050  49.5167112
  92.1786404  45.7568073  47.3099566  94.6119881  42.1469069  47.1781969
  95.6832218  42.3538589  46.6753960  94.2425442  40.9352303  47.5808525
  93.2460403  40.8487940  47.7209091  95.1200962  39.6940374  47.6832008
  96.0373974  40.1470661  48.0592585  94.8145199  38.9760756  48.4442902
  95.3534698  38.9700484  46.3126516  96.1362171  38.0750370  46.1558723
  94.4791126  39.2303324  45.2807093  93.7565899  39.9236679  45.4123735
  94.4297123  38.5905409  43.9629221  93.6645889  39.1730237  43.4496975
  95.7357121  38.8737154  43.2098818  96.5605450  38.2988095  43.6308861
  95.7080173  38.4759140  42.1954441  96.0161495  40.3374910  43.0357409
  96.0449028  40.6871128  44.0677500  97.0134544  40.4991102  42.6266432
  95.0573540  41.2194157  42.2024345  95.4969788  41.2795353  41.2068319
  94.0469360  40.8121300  42.1669340  94.8182487  42.5071144  42.7585936
  94.0880394  42.5714064  43.4534025  95.5021954  43.6347055  42.4791145
  96.5462399  43.6956215  41.7488909  97.0654869  42.9197311  41.3635540
  96.9182682  44.6180487  41.5733433  95.1199436  44.8396921  42.8844023
  94.3965816  44.9587679  43.5791492  95.7005787  45.6202888  42.6130581
  94.0259457  37.1302938  43.9466047  94.0608692  36.5125990  42.8586674
  93.5468483  36.6487575  45.0261211  93.5750008  37.3576283  45.7450151
  93.2054329  35.2779770  45.4586983  94.0640640  34.6075058  45.4951048
  92.5866890  35.3822970  46.8524647  92.9453373  36.2577653  47.3937893
  91.5474606  35.7069492  46.8004084  92.7964973  34.1828251  47.7409554
  92.1417522  33.3549571  47.4688578  93.8179016  33.8658547  47.5303173
  92.8172588  34.5325661  49.2276621  93.6151218  35.3639030  49.5798445
  91.9456863  34.0008831  49.9646759  92.1960545  34.5137453  44.5317268
  92.0778275  33.2823801  44.4666338  91.4664364  35.2068853  43.6781597
  91.5596294  36.2114954  43.6315298  90.6274319  34.5999908  42.6739788
  90.1823711  33.7133718  43.1255579  89.4981003  35.5141592  42.2541142
  89.9821758  36.4051509  41.8542385  88.8442421  35.0453496  41.5187311
  88.6865234  35.8709002  43.4402704  88.0772495  34.8197079  44.1981888
  88.1027412  33.8009691  43.8405275  87.3397064  35.2111268  45.2969742
  86.7875195  34.3986249  45.7456636  87.1296310  36.5425515  45.7085657
  86.3903141  36.9500995  46.7708969  86.0785103  36.2230277  47.3147249
  87.7016735  37.5760627  44.9833441  87.5931644  38.6199045  45.2383280
  88.3999348  37.2021842  43.7600183  88.8502598  37.9975224  43.1846476
  91.3453770  34.2156029  41.3792658  91.8832874  35.0790834  40.7049513
  91.2876797  32.9869580  40.9934902  90.6245899  31.8911529  41.7143250
  89.5465660  32.0130897  41.8196678  91.2335110  31.7982960  42.6135921
  90.8342075  30.6559849  40.7978106  89.9557304  30.6326580  40.1529598
  90.8448505  29.7324014  41.3765812  92.1025848  30.9781289  39.9443579
  92.0545101  30.3305435  39.0689015  92.9883385  30.7377601  40.5323696
  91.9874859  32.5420403  39.7812724  92.9628754  32.9974866  39.6101689
  91.0866547  32.8668904  38.5610485  91.4527130  32.4876022  37.4682331
  89.8860550  33.4957743  38.6105037  89.7373199  34.0965891  39.4086313
  88.8101768  33.3410215  37.6000428  89.1968441  33.6415553  36.6262531
  88.2192230  31.9236231  37.7057791  88.9936352  31.1569810  37.7311397
  87.7447510  31.8207693  38.6816883  87.1457195  31.5643930  36.6823530
  86.6132259  32.4939632  36.0144401  86.7817211  30.3862524  36.4429188
  87.7013874  34.3411732  38.1196690  87.5257778  34.4790196  39.3130159
  87.0713520  35.0370812  37.2045422  87.3269558  35.1551890  36.2345839
  85.8481121  35.8256984  37.5756001  86.2014580  36.4994407  38.3561850
  85.4671574  36.6522574  36.3605547  85.2448082  35.9954882  35.5195284
  84.5379353  37.2214890  36.3858366  86.2497330  37.3233128  36.0064888
  84.7275734  34.9993706  38.2227659  84.0833950  35.4572177  39.1881084
  84.5014381  33.7751341  37.7785754  85.0441456  33.4245658  37.0022559
  83.6689568  32.8825116  38.5508156  82.6794434  33.3383799  38.5169649
  83.3094978  31.6843772  37.6094437  83.1433010  32.1973300  36.6621518
  84.1730309  31.0192537  37.6136494  82.1542549  30.8532763  38.2240200
  81.4286423  31.5139318  38.6985016  81.7222023  30.3396511  37.3651719
  82.6029015  29.7697902  39.2628789  83.8115406  29.4777751  39.4760895
  81.7592144  29.3396235  40.1353455  82.0567036  28.7069488  40.8642626
  80.7760429  29.5659733  40.0879622  84.2073727  32.5951481  39.9585700
  83.4570026  32.3597574  40.8697844  85.4895782  32.6470613  40.2564430
  86.1851025  32.8827381  39.5630479  86.1206341  32.7836370  41.6010761
  85.9651756  31.8679023  42.1714830  87.1960926  32.9604387  41.5858507
  85.4590893  33.9101052  42.4082184  84.8531532  33.6044168  43.4781265
  85.4290771  35.1378393  41.9229317  85.8156681  35.3184772  41.0074997
  84.8943233  36.2258625  42.6854515  85.2500629  36.2443876  43.7155962
  85.2774715  37.5356007  41.9056082  86.2448597  37.8820181  42.2692823
  85.3834057  37.3986888  40.8294392  84.3190289  38.6097050  42.0919800
  84.3006992  39.5330334  43.1626081  85.0453281  39.5041013  43.9443254
  83.4829998  40.7057190  43.2012510  83.5918427  41.4443398  43.9816284
  82.4552059  40.7622290  42.3107672  81.7496586  41.5790987  42.3471737
  82.3528671  39.8890042  41.1966562  81.5183449  39.9941802  40.5192184
  83.2723141  38.8031459  41.1166143  83.1434059  38.1211376  40.2891827
  83.3567810  36.1037350  42.9372025  82.8467846  36.2426567  44.0308666
  82.6556969  35.6957221  41.9072533  83.1528854  35.7875848  41.0329151
  81.2447453  35.8207870  41.8835115  80.9528828  36.8255782  42.1889782
  80.7692623  35.6234503  40.4621792  81.0013771  36.4838195  39.8344922
  81.1498833  34.7292066  39.9686670  79.6842337  35.5487871  40.5345392
  80.6294155  34.8504329  42.8618383  79.6087456  35.0919247  43.4908438
  81.2818146  33.7001538  43.0780077  82.1531105  33.5602736  42.5867176
  80.7086945  32.5909042  43.9424849  79.6889400  32.3770666  43.6223888
  81.5106583  31.3372993  43.7070560  81.1550617  30.4733181  44.2684650
  81.6399574  31.0442209  42.6651907  82.5034046  31.5357566  44.1109848
  80.8269119  32.9721308  45.4146242  80.0453854  32.5176334  46.2651873
  81.7300320  33.8755560  45.7404947  82.2490692  34.1928363  44.9342489
  81.8514824  34.5310879  47.0746613  81.6726589  33.7167692  47.7768087
  83.2627392  35.1173592  47.3230267  83.5715103  35.7445025  46.4866924
  83.0662441  35.7799935  48.1658840  84.3633556  34.1766381  47.6025295
  84.1785908  32.9454875  47.4479246  85.4098606  34.5645833  48.1255627
  80.7223511  35.5307436  47.2651434  79.9767494  35.5057836  48.2673979
  80.4603958  36.3964987  46.2891626  81.1481953  36.4290023  45.5502605
  79.2142963  37.2433472  46.2215805  79.2430830  37.9515576  47.0496559
  79.1385794  38.2173872  44.9628067  78.7742329  37.5772214  44.1593504
  78.0587196  39.2507553  45.1033878  77.0907259  38.8115263  45.3445625
  78.3333588  39.9665928  45.8781481  77.9527187  39.8428011  44.1943502
  80.3883457  38.8376737  44.5081186  81.1102772  38.0772042  44.2104626
  80.1446152  39.4087863  43.6122799  80.7475567  39.4067216  45.3655863
  77.8796053  36.4271402  46.4233589  76.9312286  36.8431711  47.0425272
  77.8624153  35.3003812  45.7797289  78.7536383  35.0403500  45.3819752
  76.7242098  34.3604422  45.9173489  75.8416653  34.9865651  45.7862234
  76.7535973  33.4336495  44.7321653  77.7343464  32.9936647  44.5514870
  76.2133074  32.5125337  44.9506617  76.2709427  34.1341496  43.4369373
  75.1834679  34.1695595  43.3717871  76.6784811  35.1421046  43.5146761
  76.7328644  33.3256412  42.1844578  77.8069448  33.1850672  42.3056698
  76.2017059  32.3777962  42.0975018  76.3613701  34.1155362  40.9300184
  75.7200193  34.8811984  41.0801220  76.8416882  33.7960935  39.7727013
  76.3666391  34.3505287  38.6580038  75.6100893  35.0081539  38.7815332
  76.6143513  33.8746524  37.8022742  77.6893044  32.8932977  39.6008301
  78.2491827  32.5588274  40.3720379  77.8869486  32.6797223  38.6336541
  76.5746641  33.7176442  47.2892857  75.4567814  33.7017822  47.8361607
  77.6858616  33.3018470  47.8861046  78.4851980  33.3022594  47.2687244
  77.8051996  32.7837896  49.2337608  77.1489429  31.9135642  49.2219782
  79.2907619  32.3382568  49.3991327  79.6146584  31.5740132  48.6926413
  79.8109150  33.2873893  49.2699385  79.5506287  31.9019604  50.8205891
  79.1335106  32.6252699  51.5212631  78.9811611  30.5377626  51.2138939
  77.8922319  30.5049109  51.1786127  79.3219423  29.7537422  50.5376720
  79.2458487  30.3750992  52.2586823  81.0760975  31.8690610  51.1427259
  81.6503716  32.7072215  50.7480335  81.2493324  32.0241594  52.2076368
  81.3932228  30.9109426  50.7309771  77.3121643  33.8410950  50.3063631
  76.4798594  33.3951473  51.1926556  77.6622963  35.1280260  50.1204920
  78.1977320  35.3259897  49.2872906  77.1595144  36.2443733  50.9883022
  77.3989868  36.0989404  52.0416784  77.8059435  37.5747180  50.4785109
  78.8921833  37.5004864  50.4267073  77.5250006  37.6691651  49.4295835
  77.3816967  38.8178945  51.2822485  76.2955236  38.8622928  51.2024641
  77.6495647  38.7192559  52.3342085  77.9794884  40.3529024  50.5651665
  77.4016237  40.2202225  48.8487911  77.1210814  41.2210512  48.5205364
  78.0856180  39.7149587  48.1669140  76.4688635  39.6629024  48.7624454
  75.6261683  36.2906361  50.9749031  75.0012732  36.4955592  52.0535088
  75.0012636  36.2632370  49.8177290  75.4269695  36.1976123  48.9041853
  73.5441113  36.3527846  49.8531485  73.2698584  37.0560551  50.6394672
  73.0720186  36.9409943  48.4927130  73.3542395  36.2152600  47.7299833
  71.9834042  36.9844365  48.5262823  73.5719919  38.3311725  48.0827188
  73.4379482  39.4465709  48.9849615  72.9504061  39.1722941  49.9088001
  73.7595749  40.7585621  48.4841490  73.5354376  41.5637970  49.1680813
  74.3478251  40.8992672  47.2273874  74.5532942  41.9030142  46.8858099
  74.5676136  39.7898817  46.4462042  74.9572420  40.0063133  45.4624605
  74.1456985  38.5100317  46.8020535  74.4680929  37.6962662  46.1694002
  72.8368330  35.0565100  50.3017855  71.8192196  35.2245593  51.0001850
  73.3831215  33.9330220  49.9027205  74.3091774  33.9892721  49.5035267
  72.8311157  32.6290917  50.2222157  71.8221617  32.6488709  49.8102522
  73.5797834  31.5149403  49.5094109  74.6294165  31.5351605  49.8026085
  73.2731867  30.5162835  49.8205137  73.4523296  31.5341616  48.1079006
  73.8965082  32.3077893  47.7532053  72.8913736  32.4612451  51.7208099
  71.9475698  31.9139433  52.2661972  73.8689613  33.0160975  52.4246979
  74.5662737  33.5454488  51.9210625  73.9408159  32.9761910  53.8550901
  73.8062668  31.9360733  54.1519976  75.3730249  33.4159565  54.2921066
  75.5680895  34.3796420  53.8216162  75.2715826  33.7338305  55.3297806
  76.5369368  32.5478768  53.9667034  76.3669395  31.4051652  53.6917496
  77.7477312  33.0664849  54.1171980  78.6027718  32.5916505  53.8651371
  77.7744150  33.9979529  54.5067501  72.8018713  33.8160563  54.4610739
  72.2264624  33.3926177  55.4398632  72.5855684  35.0330901  53.8523197
  73.0804586  35.2101302  52.9898548  71.4877748  35.8814216  54.3357277
  71.6030073  35.8733082  55.4195881  71.5908957  37.3196435  53.8090611
  72.4991894  37.8369594  54.1180754  71.5310097  37.2333455  52.7241373
  70.3001690  38.2860470  54.4868946  70.7357597  38.2142496  55.7478476
  70.0853062  35.2586436  54.1216183  69.2381573  35.2222681  55.0243902
  69.7647619  34.5319724  53.0341673  70.3983498  34.5362592  52.2476244
  68.5708523  33.7166381  52.8375626  67.6994228  34.3149829  53.1034517
  68.5027170  33.3137560  51.4073896  69.0750837  32.4240661  51.1448050
  67.4751711  33.0898595  51.1208296  68.6871862  34.3883562  50.2660418
  68.3016729  35.6580353  50.3413010  67.8073359  35.9951711  51.2403965
  68.4555769  36.5184236  49.2709827  67.9893541  37.4925351  49.2829609
  69.2198467  36.1140847  48.1685448  69.5074940  37.0555162  47.2810221
  69.9804258  36.7000747  46.5249825  69.7274399  34.8537350  48.0273342
  70.3266335  34.5711493  47.1743917  69.4177198  33.9944935  49.0795994
  69.7793770  32.9796839  49.0036249  68.5260677  32.5445247  53.8104248
  67.4591303  32.1762776  54.3795204  69.7103882  31.9815922  54.1013956
  70.5136442  32.4529147  53.7105846  69.8090506  30.7806730  54.9192238
  69.0415859  30.1171803  54.5206356  71.2257099  30.1230884  54.8135185
  71.4540243  29.8737884  53.7772655  71.9254255  30.9199643  55.0654888
  71.4430618  28.9335489  55.7831049  71.4935160  29.2906785  56.8116999
  70.5563068  28.3078766  55.6815863  72.6102591  28.0441427  55.5135059
  72.7080488  27.6314783  54.5093918  73.4490156  28.7352037  55.5973864
  72.6867151  26.9304752  56.5723896  72.7378941  27.3014975  57.5960255
  71.8326998  26.2650323  56.4460945  73.8606310  26.1216187  56.4486265
  73.7479448  25.3666925  57.1100569  73.9383030  25.7173944  55.5263090
  74.7311831  26.5921903  56.6506147  69.3080330  31.1347771  56.3213205
  68.6278296  30.3156972  56.9826794  69.7471571  32.3291969  56.8682051
  70.2973223  32.9895067  56.3377237  69.6465683  32.5056648  58.3064079
  69.8926115  31.5509272  58.7712049  70.7740116  33.5414338  58.7687397
  71.7177200  33.1223702  58.4195995  70.5582094  34.4866276  58.2705927
  70.9702110  33.7524152  60.2412271  71.4277315  32.6562929  60.9471178
  71.6432762  31.7444277  60.4100466  71.6472960  32.7078366  62.3071814
  72.0152235  31.8639684  62.8719091  71.3038158  33.8902926  63.0559540
  71.4736748  33.9857531  64.3802166  71.1971283  33.1649613  64.7942591
  70.8296251  35.0313377  62.3441029  70.5151224  35.9556437  62.8057814
  70.6121635  34.9184561  60.9239626  70.1221657  35.7206368  60.3921652
  68.2341099  32.9226398  58.7523365  67.9632235  32.6944518  59.9357462
  67.4977875  33.5364771  57.8080416  67.9171371  33.6517596  56.8964672
  66.3316107  34.3738532  58.1457996  66.1992073  34.3722439  59.2277336
  66.4321661  35.8267474  57.6823807  66.4265680  35.8892107  56.5941858
  65.6262922  36.4071226  58.1316423  67.7377224  36.2690806  58.2538795
  67.8650713  36.3233757  59.4575167  68.8338566  36.4301586  57.5354624
  69.6567726  36.7892838  57.9979992  68.8177490  36.1444306  56.5668535
  65.0523281  33.7947440  57.6947260  65.0284767  33.3202028  56.5670395
  63.9357376  33.8994026  58.4020424  63.7449026  34.4073868  59.7881746
  64.1818380  35.3987598  59.9080515  64.0494299  33.5591841  60.4013062
  62.2461367  34.4194198  59.9949217  61.9187593  35.4376650  59.7849083
  61.9603157  34.1168022  61.0023069  61.5966558  33.5659504  58.9350891
  60.6445074  34.0124726  58.6485004  61.4859295  32.5955367  59.4189739
  62.6011181  33.5997152  57.7690840  62.4835587  32.5685906  57.4358225
  61.9925213  34.5973086  56.6876984  62.4732494  35.6707811  56.5862083
  61.1000443  34.1511655  55.7563210  60.6542063  32.7421522  55.6149960
  59.7161865  32.6230240  56.1572361  61.4596939  32.0731378  55.9178495
  60.2867746  32.5279641  54.0918922  59.4557333  31.8437886  53.9204931
  61.0954714  32.2219300  53.4282303  59.8297930  33.9528823  53.8172293
  58.8187742  33.8712025  54.2163181  59.8286819  33.9759040  52.7274704
  60.7292366  34.9223733  54.5434237  61.6327715  35.1086307  53.9628792
  60.0274324  36.2300229  54.8475599  60.1159477  37.1791315  54.0623188
  59.4479227  36.3051891  56.0869074  59.3881369  35.4342270  56.5948009
  58.7188625  37.5282812  56.5032911  58.0152225  37.7552342  55.7023573
  57.9038429  37.2731566  57.7863598  58.5937548  37.2075844  58.6276865
  57.1546602  38.0427313  57.9723024  57.1935749  35.9673190  57.7933025
  55.9800386  35.9759116  57.4149227  57.8211451  34.9293447  58.2477522
  59.7035217  38.6123347  56.8246937  59.2377090  39.7384000  57.1097898
  61.0116911  38.3798194  56.8641853  61.2676096  37.4122286  56.7286444
  62.0353270  39.3743968  57.2091532  61.6260433  40.1433039  57.8644133
  63.1958437  38.6700892  57.8317404  62.8379679  37.9313326  58.5488605
  63.6896801  38.1537008  57.0085955  64.1523790  39.6292853  58.5803652
  64.6491814  40.8715820  58.2041121  65.4280758  41.1992073  59.2171955
  66.0296106  42.0937824  59.1516399  65.4835701  40.2770138  60.1611519
  66.0337591  40.2878666  61.0080719  64.7470474  39.2052865  59.7071648
  64.5663118  38.2384610  60.1532412  62.5370502  40.2101803  55.9478331
  62.7151442  39.7168779  54.8212481  62.7771044  41.4922762  56.1759615
  62.6784801  41.8205404  57.1260214  63.1896210  42.4396420  55.0827694
  62.4561071  42.4166775  54.2768383  63.2057858  43.9280891  55.5810499
  63.5928822  44.0022707  56.5972948  63.8933039  44.4775105  54.9379635
  61.8469238  44.6188211  55.4198551  62.1393490  45.6675005  55.4733562
  61.4410448  44.5623207  54.4098186  60.8295536  44.3168926  56.5068531
  61.1796427  44.5373440  57.6907635  59.6636820  43.9473915  56.2422609
  64.5346308  42.1574116  54.4326353  64.7424221  42.5308800  53.3164978
  65.4898977  41.4808273  55.1612711  65.2064657  41.1840200  56.0841322
  66.8555927  41.4142132  54.8383427  67.0840120  42.4431038  54.5602894
  67.7536964  41.3019323  56.1042643  67.3303461  41.9653034  56.8584633
  67.7385044  39.8749542  56.7070627  68.1943798  39.8164725  57.6954222
  66.7599630  39.4131136  56.8384123  68.4357071  39.2853522  56.1117601
  69.2366457  41.7368078  55.8548069  69.7342825  41.7723322  56.8239307
  69.8401499  41.0121775  55.3081894  69.3149233  42.7240372  55.3994560
  67.0974684  40.4350185  53.7352133  67.9321957  40.7471228  52.8947163
  66.2314415  39.4457078  53.5694695  65.6168365  39.2806888  54.3537807
  66.0287380  38.6278892  52.3559523  66.9285774  38.0460429  52.1563387
  65.0268555  37.5002813  52.6787949  64.0500450  37.8455782  53.0174828
  64.7065496  36.7010498  51.3683367  65.5153894  36.5180039  50.6609678
  64.3112898  35.7278252  51.6593838  63.9374924  37.2331023  50.8083630
  65.6461191  36.4969802  53.6693764  66.1752510  37.0062065  54.4748640
  64.8351717  35.8315659  53.9654970  66.4878178  36.0028315  53.1841373
  65.5978489  39.4004583  51.0694075  66.0458040  39.1515064  49.9735880
  64.7720814  40.4758596  51.1788464  64.3010950  40.6974173  52.0444012
  64.3773508  41.2195396  50.0253868  64.2072868  40.4831553  49.2399406
  63.1482887  42.0814657  50.3514767  62.6758194  42.5759697  49.5027447
  62.3809195  41.4168167  50.7483149  63.4472561  42.8243399  51.0909748
  65.5911541  42.0893621  49.6982193  65.9307432  42.2329092  48.4977818
  66.2562227  42.7121401  50.7451487  65.9650946  42.5505733  51.6986895
  67.4695778  43.5270166  50.6351471  67.2934866  44.3861008  49.9877930
  67.8712702  44.0146160  52.0461512  67.8912878  43.1640959  52.7275610
  68.9085293  44.3459654  51.9971275  66.9296455  45.0320101  52.6592064
  67.0886707  45.9629440  52.1149874  65.9391022  44.5934868  52.5382900
  67.2700357  45.2798462  54.4352722  68.5153675  46.6057491  54.3347549
  69.0143633  46.9090605  55.2551413  69.1895676  46.2647820  53.5490751
  67.9124403  47.4371815  53.9696550  68.6864567  42.7605963  49.9951363
  69.3033648  43.2480145  49.0753603  68.8993454  41.5343714  50.4494572
  68.4964323  41.2064552  51.3156128  69.7776890  40.5253696  49.8078489
  70.8212709  40.8283520  49.8929024  69.8693705  39.1332507  50.5333710
  68.8787699  38.6846137  50.4589844  70.6094360  38.5389280  49.9974728
  70.1480436  39.2872524  51.5758324  69.4790983  40.4516888  48.2927656
  70.2792358  40.9104633  47.5145245  68.2435846  40.0256014  47.8501034
  67.5404501  39.8284507  48.5478354  67.8317356  39.8681164  46.4538956
  68.5215950  39.2433548  45.8865643  66.4203358  39.2418337  46.5660667
  66.5789747  38.2948971  47.0820570  65.7833862  39.9106073  47.1449757
  65.7757092  38.9937997  45.1557255  64.7388554  38.7196541  45.3503609
  65.6242037  39.8597074  44.5112467  66.4002562  37.9009271  44.2130709
  66.8045759  37.1234369  44.8612499  65.6576729  37.3593974  43.6270571
  67.5521994  38.3433914  43.3760118  67.5918388  39.2791557  42.9980230
  68.4210014  37.5730205  42.7312279  69.3043232  38.0516744  41.8784428
  69.0156221  38.9105606  41.4322710  69.8412037  37.4017453  41.3221598
  68.4992790  36.3262558  43.1170750  67.7716589  35.8755851  43.6533260
  69.1214371  35.7048082  42.6202631  67.8668499  41.2410831  45.6633425
  68.3380318  41.1820507  44.5027971  67.4321461  42.3794222  46.2157106
  67.1730709  42.3545742  47.1916008  67.6352262  43.6531496  45.5797052
  67.0892620  43.5874748  44.6385813  66.9924498  44.5888853  46.5559244
  66.0609341  44.1203594  46.8734980  67.4204779  44.7258568  47.5489664
  66.6315603  45.9240246  45.9273720  66.5478945  46.6491938  46.7368364
  67.4608707  46.2342644  45.2916908  65.3738213  45.8543634  45.0026035
  65.6919336  45.3833628  44.0725136  64.6298075  45.2060652  45.4654741
  64.7754335  47.1848774  44.6605873  64.7241545  47.6759529  45.6323481
  65.3327990  47.6304340  43.8366175  63.3682108  46.9947577  44.1249418
  63.3138227  46.4464808  43.2784557  62.7227211  46.6336012  44.8126984
  63.0072355  47.8605700  43.7505531  69.1035557  43.9804935  45.2517223
  69.4433117  44.3879509  44.1523361  70.0081825  43.7587357  46.1834908
  69.6484470  43.2375526  46.9702959  71.4284086  43.8335848  45.9416628
  71.5501451  44.7313356  45.3355885  72.1352863  44.0218782  47.3232079
  71.5960789  44.7042322  47.9802847  72.0809555  43.1074476  47.9139376
  73.5946894  44.5374107  47.2256565  74.2447567  43.9532232  46.5743160
  73.6801767  45.9875441  46.7544699  74.7029495  46.3357019  46.6102076
  73.2789850  45.9770012  45.7410431  73.1396723  46.6091585  47.4683046
  74.2871428  44.3246412  48.5757113  75.1623249  44.9719191  48.6321640
  73.6013460  44.6306944  49.3657160  74.5503855  43.2763338  48.7166166
  72.0904350  42.7087784  45.1254225  72.9444647  42.9447460  44.2584848
  71.5655756  41.5003633  45.1902390  70.9066772  41.2865114  45.9252405
  71.9799662  40.4531813  44.2686272  73.0627441  40.3404903  44.3233204
  71.4096785  39.0510511  44.6812868  71.6424561  38.8110828  45.7187462
  70.3282928  39.0284157  44.5463896  72.0886803  37.9788852  43.8919878
  71.8800926  38.0921054  42.8281403  73.1730413  37.9855609  44.0024996
  71.5510845  36.5983963  44.2994642  70.7943726  36.3404703  45.1882458
  71.8452692  35.6995225  43.3789015  71.7862368  34.7377443  43.6815548
  72.4885130  35.8641410  42.6178265  71.6826725  40.7941771  42.7857971
  72.6214886  40.8744097  42.0025492  70.4565334  41.3272715  42.4898577
  69.8163366  41.4012575  43.2675314  70.0936365  41.9388819  41.1743689
  70.1526642  41.1880064  40.3864574  68.6084223  42.4712467  41.1277294
  68.4395075  43.1485701  41.9648695  68.4971714  43.0221605  40.1937962
  67.5276279  41.4061880  41.1838388  67.8417683  40.1601267  41.2503004
  66.3491106  41.6910505  41.4973927  71.0108662  43.0345154  40.7364798
  71.2386322  43.2255697  39.5184350  71.6956186  43.8234758  41.6274595
  71.4998674  43.7965250  42.6179457  72.6548386  44.8513174  41.2379265
  72.1774197  45.5707169  40.5726147  73.2151556  45.7842541  42.3964500
  73.5541487  45.2239609  43.2678032  74.2327642  46.8245125  41.9721508
  75.2017260  46.3536310  41.8063354  73.8719845  47.3713350  41.1009884
  74.3614244  47.5947046  42.7326488  72.1321726  46.6835785  43.0770159
  72.4262428  47.2520924  43.9592934  71.7199898  47.3803854  42.3471737
  71.3833380  45.9919167  43.4629488  73.8997412  44.2603779  40.4540396
  74.2237854  44.6905899  39.3602252  74.5002747  43.1830454  41.0511541
  74.0616798  42.8264332  41.8881512  75.6102562  42.3625422  40.5174685
  76.3171530  43.0562973  40.0623798  76.3107586  41.7758989  41.7375565
  77.1285439  42.4648190  41.9490147  75.6632471  41.8162632  42.6134539
  76.7793274  40.3680754  41.5942049  78.0473709  40.0900745  40.9771538
  78.7067413  40.8904076  40.6753302  78.3359861  38.7006402  40.7164717
  79.2260695  38.3634567  40.2061176  77.4674559  37.7152920  41.2718296
  77.7428532  36.6727018  41.2121439  76.3354301  38.1029773  41.9904900
  75.6923866  37.3923826  42.4884319  75.9790659  39.4208908  42.2201538
  75.0354576  39.6180844  42.7070999  75.2354288  41.4811325  39.3573475
  75.9983683  41.3504648  38.4024811  74.1469288  40.7223415  39.4725227
  73.5512781  40.8219194  40.2820826  73.8332129  39.5900416  38.5896087
  74.7153854  38.9518785  38.5383439  72.6878691  38.7391901  39.0402889
  71.8005753  39.3704987  39.0878153  72.3578453  38.1184149  38.2073283
  72.8458548  37.9448843  40.3556967  73.1669569  38.6437178  41.1281157
  71.8866682  37.4875546  40.5984020  73.7699270  36.7315960  40.1722479
  74.2799711  36.3825536  39.0894127  73.8559008  35.9684610  41.2208939
  73.6258984  40.1102400  37.1416283  73.9947557  39.4445586  36.1651611
  72.9568529  41.2563992  36.9413972  72.7090788  41.8557692  37.7156472
  72.7720499  41.8037748  35.6070924  72.3430920  41.0073948  34.9989247
  71.7842007  42.9610443  35.6454349  72.2570324  43.8164330  36.1279774
  71.5661287  43.2283115  34.6114564  70.4329729  42.6732826  36.2371516
  70.5106735  42.3199892  37.2653770  69.8466587  43.5910082  36.1910748
  69.4298363  41.3707256  35.3803825  69.5493221  40.0651646  36.7181444
  68.9958763  40.5120087  37.5440526  69.0654278  39.1414881  36.4007068
  70.5822325  39.9467230  37.0455098  74.0169668  42.2646666  34.8528647
  74.0946817  41.9890022  33.6540270  75.0259733  42.6390123  35.5722475
  75.0115347  42.4823809  36.5699244  76.2951040  42.9760265  34.9577427
  76.0835266  43.4822989  34.0159225  76.9276476  44.0745926  35.7890034
  77.1794128  43.7345171  36.7935252  77.7751827  44.4505739  35.2159262
  75.9886217  45.3591347  35.9150863  75.9076166  45.8243132  34.9326658
  74.9871159  45.1310968  36.2799048  76.7161369  46.3190746  36.9210458
  76.6433287  45.8518934  37.9031563  77.7735233  46.2837124  36.6587830
  76.1467648  47.7398968  37.0823336  76.6724539  48.5486841  36.7829800
  74.9192095  48.0297995  37.5151706  74.0973282  47.0954418  38.0146098
  74.4622087  46.1559820  38.0807447  73.1801081  47.3739529  38.3327889
  74.3616343  49.2229509  37.6479077  74.8026657  50.1129866  37.4650931
  73.3829260  49.3465567  37.8646088  77.2600174  41.8424845  34.5741296
  77.8300142  41.8977642  33.5037851  77.4017239  40.8989334  35.4297471
  76.8983936  41.0442972  36.2932444  78.2160664  39.6669865  35.1785421
  79.2693472  39.9045920  35.0293922  78.3067083  38.7859917  36.4713860
  78.7040901  39.5405579  37.1502233  77.2967625  38.5719490  36.8210959
  79.1230249  37.4907851  36.4095640  80.3253746  37.4337959  37.0569587
  80.6706238  38.2345510  37.6941395  81.1100101  36.2358499  37.0110178
  82.0668316  36.0760212  37.4857259  80.6437016  35.1711416  36.1567640
  81.1705399  34.2383170  36.0200763  79.4929218  35.3059149  35.4087114
  79.2569828  34.5875788  34.6375251  78.6966705  36.4277124  35.5933666
  77.7232695  36.5328383  35.1374698  77.6351500  38.9587831  33.9401555
  78.3840609  38.5566211  33.0121565  76.3246202  38.9482474  33.8698173
  75.7333422  39.3614197  34.5767665  75.6020117  38.3638549  32.7139688
  76.1243820  37.4097347  32.6440859  74.0926695  38.3065653  32.9506135
  73.8488293  37.8767109  33.9221478  73.6599493  39.3061328  32.9920602
  73.6923122  37.8014255  32.0716095  75.8323669  39.1163039  31.4126539
  75.6327772  38.5335708  30.3480005  76.3316202  40.3610611  31.4669943
  76.3971472  40.7342815  32.4032164  76.7428684  41.1549997  30.3255606
  76.3147211  40.6648159  29.4511986  76.1173820  42.5817823  30.4985380
  76.4698601  43.1471395  31.3612247  76.5758562  43.0659723  29.6362972
  74.6060085  42.6478481  30.4068303  74.4658566  42.4990177  29.3361735
  74.1244745  41.8551970  30.9794807  74.0587997  43.9777327  30.9309864
  72.9804039  43.9795256  31.0895777  74.5657158  44.1017628  31.8879390
  74.3495464  45.2240133  30.0236940  74.0441847  46.1053562  30.5876827
  75.4303122  45.2952909  29.9013329  73.6730099  45.2361441  28.7026978
  72.8211594  44.6935940  28.7122440  73.5098028  46.1919880  28.4201694
  74.1923809  44.8159504  27.9452038  78.2581377  41.1201191  30.0996828
  78.6289644  41.6681147  29.1081738  79.0784740  40.5907440  30.9314942
  78.6383677  40.0894880  31.6898799  80.5753899  40.4767513  30.8341932
  80.9555531  41.4177895  31.2317133  81.1206532  39.3945980  31.7186403
  80.8690166  39.6165991  32.7557039  80.6669903  38.4371090  31.4626956
  82.6631737  39.2513442  31.7125201  82.8893566  38.8193512  30.7376742
  83.2048988  40.1464701  32.0181036  83.3796024  38.0427480  32.9067469
  83.0089378  38.7618041  34.5091438  82.0023251  39.1777635  34.5518136
  83.0017948  38.0575562  35.3410625  83.7586117  39.5171094  34.7449541
  81.0267639  40.0651360  29.3974876  80.5017185  39.0645742  28.9532328
  81.9354820  40.8049393  28.7608957  82.5574398  42.0144844  29.2802000
  83.2937431  41.8470669  30.0662827  81.8871975  42.7935839  29.6433640
  83.5371017  42.5000238  28.1382465  84.5315647  42.0722532  28.2653379
  83.6242676  43.5841513  28.0663681  82.8415394  41.9392252  26.8670797
  83.5348415  41.8445158  26.0313416  82.0142555  42.5694609  26.5407300
  82.3543453  40.5777025  27.3707962  81.5352249  40.4155874  26.6701794
  83.3155346  39.4046783  27.0025873  82.9412270  38.5884881  26.1088991
  84.4255733  39.4152570  27.5948358  60.3323603  46.2755489  51.9286251
  61.7145920  48.7899113  55.9413004  60.0102234  43.7120008  51.1574936
  60.1796722  45.1096201  50.6031704  61.2951708  47.3009205  51.7770481
  69.0795946  41.2089872  60.4359531  69.3146610  39.6307492  63.8628817
  73.7320614  42.1001196  59.6273136  61.4366722  48.2105064  52.8459263
  70.4989672  38.4943318  59.0052080  67.2069645  39.9829531  62.9358244
  59.3400908  46.2980700  52.9991722  71.2706947  38.6088967  57.8391314
  63.5630131  49.9656534  55.2504492  59.4473076  47.2930670  53.9695168
  71.6309261  40.3954268  59.1437101  61.1216879  45.3450203  49.4884825
  60.4522991  48.2844448  53.8804960  58.6549139  45.2384710  50.0699472
  60.7066011  49.3122196  54.9743271  55.9085083  44.8409176  49.4002581
  63.0435514  49.0930986  55.9298849  52.5355244  47.1438360  47.0058823
  63.9574623  48.1789446  56.7220116  63.4765291  46.9979858  57.3904324
  64.3701363  46.1327219  58.0369473  65.3629112  48.3591366  56.7218447
  66.2030983  47.3908329  57.2626352  65.7765579  46.2534904  57.9362726
  66.7679739  45.3246307  58.5976219  67.9668188  45.0133944  57.9923248
  68.9310694  44.1179705  58.4972095  68.6512327  43.4292030  59.7107458
  69.6017218  42.4145508  60.2905560  69.8058271  40.0414705  60.8673096
  68.9942217  38.9757276  61.5729523  68.3699369  39.5527649  62.8813839
  68.9115858  40.3465700  65.0837374  70.6217670  39.6331429  59.7137594
  71.9320059  39.7678065  57.9046297  72.7625513  40.3461647  56.8520069
  72.0722055  41.6114616  59.6989489  71.1320305  42.5147676  60.1212168
  71.8327284  43.6435699  60.5740309  71.1191559  44.7924757  61.3281298
  73.2716560  43.5437632  60.4739952  74.3430090  44.5851612  60.9697104
  67.4393845  43.7708616  60.4173279  66.5128994  44.7091579  59.8928070
  58.0261087  45.8540869  48.9076090  58.6870909  46.8543959  48.0951262
  58.0269575  47.4729967  47.0242500  56.6538858  47.2248793  46.7954159
  55.9731483  48.0765820  45.7350159  56.0625792  46.2896061  47.5969267
  56.7385435  45.5964231  48.5949564  54.6085978  45.0005627  48.9142132
  54.6466827  45.8663702  47.8549480  53.4717083  46.4978313  47.2847557
  62.0880270  47.2030544  51.0413790  62.2605896  48.9161682  52.8969145
  58.5655975  45.5395651  53.0641794  58.7576866  47.4221516  54.7984600
  61.2073994  50.1443195  54.4644165  59.7489691  49.6950150  55.3479481
  61.4699030  47.9817724  56.5009451  62.4244452  46.7388964  57.4638844
  64.0363598  45.1823473  58.4428692  65.7328320  49.2859697  56.2934303
  67.2705603  47.5565100  57.1509504  68.1832314  45.4954815  57.0435572
  69.8456717  43.8762665  57.9638338  70.5254507  40.4080677  61.6095591
  69.6727514  38.1333470  61.7508411  68.0726719  38.6961603  61.0492754
  68.8480043  41.4294434  64.9208689  67.9110765  40.1789093  65.5009365
  69.6267796  40.0836325  65.8727551  72.4097776  40.0970888  55.8444500
  72.8105116  41.4411068  56.8307972  73.7722588  39.9292731  56.9433594
  70.1987839  44.4360590  61.8051481  71.7291689  45.2964020  62.0868111
  70.8493471  45.5285883  60.5619764  74.3050957  44.7131777  62.0577526
  75.3407049  44.3523216  60.5797815  74.0020895  45.5412436  60.5557871
  67.1803856  43.2273865  61.3211870  65.6325817  44.9300861  60.4891539
  58.2481956  44.4128942  50.4908323  59.7082376  47.1504641  48.3164787
  58.4895229  48.3159351  46.5193939  55.2348375  47.4863911  45.1798391
  55.3722620  48.9227390  46.0880136  56.6374540  48.5042858  44.9751329
  56.0465670  44.5889902  50.3680229  53.7497663  44.5109558  49.3535233
  75.0008106  62.6259708  43.7330580  86.9420433  49.3159008  29.4322801
  54.4113779  87.6190567  76.7227125  73.5796928  57.2010803  53.1149864
  89.3163395  47.2857952  86.8726158  70.9875631  48.1156015  38.8204265
  78.5965967  65.0591183  77.1754169  32.1684194  41.0318375  34.5244908
  88.2761383  32.6247859   3.6270788  48.0817652  27.9083300  46.8582153
  48.6372995  28.6581254  47.0713329  47.7932405  27.5748610  47.7077913
  75.4619741 100.8996487   3.6261901  75.8856058 101.3877487   4.3322557
  74.9295568 101.5515137   3.1703019  25.0114942  10.7588482   8.0474329
  24.7735596   9.8990488   7.7004981  25.2843118  10.5863786   8.9485753
  46.5365601   3.7485588  16.2017727  46.5779495   4.6271175  16.5794671
  46.6009140   3.8905826  15.2573574 105.3676701  69.7268057  45.8373451
 105.0806141  70.0967693  46.6721869 106.0019016  70.3596020  45.5003786
  39.2946291  98.3854008  13.0680990  39.0129805  99.0418625  13.7052560
  40.1292419  98.0635643  13.4087968  16.8935096   8.2967979  36.6655302
  16.2599385   7.9041892  36.0649657  16.7079139   9.2351460  36.6296411
  78.8882399  83.7714958  25.5977988  79.5963383  83.5892868  24.9800372
  79.0588045  84.6630859  25.9014559  21.2742972  71.8846464  17.9022813
  20.6038761  72.0448971  17.2381389  21.9445252  72.5461006  17.7305150
 102.3172283  90.2493477  30.9668088 102.0806694  90.0359821  30.0641727
 101.4946079  90.1839733  31.4518380  76.1121321  44.5964622  89.0425110
  76.1424780  44.7715044  88.1019402  76.7813587  45.1707697  89.4147205
  91.5191078  83.2116890  13.2397866  90.7105350  83.6694717  13.4697413
  91.4104843  82.3344898  13.6071575  80.0475693  80.9019566  62.3196411
  79.6777248  80.1878834  61.8004560  80.0992393  81.6388512  61.7109203
  99.2384911  84.6848202  20.6726027  99.7071171  85.4769325  20.9356141
  99.6498585  83.9840412  21.1784911  55.7421350  64.1460228  89.7504139
  55.3934526  63.3055496  89.4533253  56.2297487  64.4822884  88.9984894
  89.1575813  72.0565891  27.4716115  88.8752842  72.5442791  26.6978574
  88.5682106  72.3486328  28.1670117  71.4810276  42.6978493  77.4314737
  71.8863201  42.4025059  76.6161537  70.7638264  43.2660198  77.1503258
  93.6499119 104.1915035  24.1628003  93.5082722 103.5575008  24.8657966
  94.5995998 104.3072987  24.1324472  98.5996532  80.6681347   8.2847095
  98.6089611  79.7133112   8.2179701  97.7770901  80.8690166   8.7311071
  24.9965906   1.1395854  10.9487486  25.1802897   2.0414059  10.6856787
  24.7132349   0.7079642  10.1427436  64.3960190  78.2855463  41.8784761
  64.2128181  78.8546276  41.1309385  64.9022675  77.5615740  41.5099573
   3.6992076  59.9883699  16.0828841   4.6202207  60.2471113  16.0509348
   3.7211576  59.0379715  16.1946535  15.8788194  61.8751739  -0.0356594
  16.5132131  61.2757496   0.3573593  15.0749292  61.3604073  -0.1064983
  36.6407800  12.5410342  22.9895878  37.1802402  12.8277993  23.7264585
  35.9598088  11.9989824  23.3879447   9.7253966   9.2725593  48.5633373
   9.7562760   9.1379809  49.5105267   8.9528346   9.8203284  48.4243107
 112.0562957  96.3454437  10.2127075 111.7748443  96.8960381  10.9433734
 111.2411048  96.0580730   9.8014784  46.9356441   6.0555136  29.6043968
  46.8183422   6.1699736  30.5474615  47.0218611   6.9459575  29.2639470
  16.3930404  69.4494820  11.4109802  15.5380201  69.0191698  11.4126647
  16.6849184  69.4058657  12.3215497  99.6279716  96.4132786  40.7601500
  99.6897411  97.1777058  40.1873779  98.8065147  96.5361977  41.2358809
  24.3982697  80.8291245   1.8804996  23.7533140  80.1788235   1.6023374
  24.0166783  81.2249756   2.6640302  16.3126147  61.4300060   4.1999301
  16.5088308  62.3399019   3.9767140  15.4215920  61.2914181   3.8788337
  10.3992128  22.1272850  26.3406110  10.2628350  21.1904621  26.1992097
  11.2237179  22.3194003  25.8939409  26.3681793  95.2207661  39.3524122
  26.9945860  95.4204273  40.0481033  26.1716866  96.0696507  38.9561653
  36.0440111   1.7767438   2.4169409  35.9388161   2.7210298   2.5330871
  35.7553148   1.6122079   1.5192696  20.4931402   4.3641278  42.0936012
  19.9272454   4.5477158  42.8434610  20.0822949   4.8282316  41.3641882
 111.6850281 101.4671516  31.3226175 112.5197983 101.2951851  31.7583036
 111.7843533 102.3441982  30.9522867  99.2059708  88.8503075   5.5712044
  98.6817360  88.7943077   6.3701236  98.7872505  88.2377052   4.9665439
  23.0938625  78.6743116  38.6932874  24.0058589  78.5093975  38.9326549
  23.1467414  79.2540836  37.9334831  10.1957226  99.0610027  29.2405057
   9.9468124  99.9518013  28.9940095   9.9051702  98.5193920  28.5067010
  -0.1954096  39.2068982  25.8423257   0.3384382  38.6492014  25.2764463
   0.4396326  39.6826649  26.3776731  55.9046173   0.6687050  33.6986399
  56.6042280   0.8640873  33.0752611  55.8190775   1.4665732  34.2204833
  12.1779978 104.1314507   5.2624911  11.5817523 104.5323086   5.8949786
  11.6845846 104.1196632   4.4423473  58.9509583   1.1480917  50.7772493
  59.0959644   1.8013673  50.0928211  58.1311607   0.7201996  50.5301142
  12.3212671  70.1430178  33.9046383  12.9053545  70.1782942  34.6621537
  11.5075862  69.7726202  34.2466354 109.7865868  96.6034317   0.8577722
 110.4439735  96.4916897   0.1710534 109.6778584  97.5514317   0.9332856
   0.2949714  85.4794216  47.7060843   0.1787909  85.5047607  46.7563009
   1.2420109  85.5360508  47.8331327  66.5720844   5.7751340  25.0771880
  67.0629358   5.2634633  24.4341564  65.6550217   5.5651188  24.9007988
  13.7699771  83.7616920  23.6606765  13.0960751  84.1488457  24.2194223
  13.8676083  84.3820381  22.9382730  79.1243935  59.2396164  87.0973492
  78.4436321  59.0833139  87.7518463  79.3046188  60.1776981  87.1585464
   3.3359727  78.4381676   7.5476074   3.3438748  79.2679834   8.0246586
   3.7474281  78.6409521   6.7074794  59.2990685  18.2935345  89.1763496
  59.2169523  18.5517406  90.0944042  58.7719297  17.4979150  89.1032505
  12.6726151   0.9430672   3.6412898  13.4682846   0.9003780   3.1108955
  12.7899587   1.7206812   4.1869810  12.7075112  64.5697832  24.8220611
  12.7001405  65.4362249  25.2288198  13.4993994  64.1526318  25.1613665
  58.5521698  12.8927672  35.8535957  58.7484741  11.9626439  35.7414913
  57.9165745  12.9189038  36.5688348 107.6249504  92.2622967  36.0541487
 106.7019463  92.1336746  36.2726402 108.0343246  91.4164448  36.2362766
  89.5529556  55.5174017  41.4072847  90.4683971  55.7249498  41.2198877
  89.1071510  55.6199551  40.5664682  96.5819836  97.4968719  87.1692944
  96.2019348  96.9255733  87.8366947  96.5037346  98.3778477  87.5353527
  44.4463682  54.9109364  55.0758934  44.3744755  55.7238483  54.5756578
  44.6125078  54.2376184  54.4161367  39.5077753   6.6954643  25.3244686
  39.3026614   5.9190804  25.8454180  38.9194965   6.6408437  24.5713592
 110.3730869  95.2792168  59.3066597 109.7209263  95.7790947  59.7976255
 110.0318813  95.2534580  58.4127092  92.2215748   4.3302640  90.3442001
  92.5976086   3.4536862  90.4244804  91.3992977   4.1959172  89.8729801
  79.2383862   2.5827727  23.5156703  78.2989407   2.4794532  23.6673427
  79.3007135   3.2858607  22.8691292  50.2425528   9.4642878  27.6832366
  50.2386856   8.6372685  27.2013092  49.5291758   9.9709725  27.2951722
  55.0111008  18.1531262  35.8018231  54.2627001  18.7171865  35.6069899
  55.6450272  18.7333798  36.2233424  22.5792360  10.2304840   0.6066771
  21.9954085   9.9046177  -0.0782961  22.1041942  10.0708711   1.4222074
  53.9899683  14.5876551   1.4352675  54.5978689  15.2852881   1.1903273
  54.3093348  14.2783618   2.2829542 102.6282406  93.8192844  26.5201640
 101.8152046  93.4020519  26.2353635 102.8501415  94.4212532  25.8097911
  21.3294959  31.2973380  14.7464895  20.5507350  31.4146543  14.2024302
  21.5755630  30.3812551  14.6181226  71.3795090  28.4575701  44.2750359
  71.1819172  29.0899825  44.9658632  72.2657299  28.1551456  44.4735003
  64.7457552  54.8019218  90.1354790  64.4263268  55.6756449  90.3608704
  65.5570364  54.7073698  90.6345844  29.3222141  19.9814570  38.6575198
  30.0866365  19.7768390  38.1189847  28.5736895  19.7325397  38.1153178
  14.0528619 103.8164330  35.5695629  13.3411133 104.2974377  35.1473331
  14.1371703 103.0133629  35.0555587  63.4886217   8.8276982  37.9096699
  62.6631641   9.2642254  37.6992130  63.7424898   9.1914892  38.7578678
  42.3482609  96.8284988  12.0133853  43.1893682  96.6214943  11.6060507
  42.0072794  95.9820366  12.3022771  34.4540048  90.6180096  21.3716531
  34.2934251  89.9114037  20.7462358  34.6096516  91.3894081  20.8267188
  75.7892132  15.7319653  26.0409975  74.9391651  16.0553527  25.7425427
  75.7785034  15.8691072  26.9882607  48.4416294  23.9324021  23.3926082
  49.1516924  23.4548497  23.8215446  47.6451778  23.4849524  23.6784101
  25.3021646  10.6228864  17.9961038  25.2347493  10.8807027  18.9154613
  24.6048212  11.1113095  17.5586283   8.6130542  95.7657909  11.9328642
   9.0766084  96.5805531  11.7391753   8.2332331  95.5013180  11.0949957
 100.7530785  91.2840557  45.5184698 101.3342285  91.5119743  44.7928238
 101.3393688  90.9597874  46.2020969  34.5524645  62.8366232  21.1016965
  34.4375968  62.7347088  22.0464993  33.9559174  63.5461330  20.8630466
 100.2717876 103.6800766  25.6677413 100.2292347 102.8844929  25.1372051
 101.1457825 104.0328693  25.5007243  85.2957821 104.2144585  49.7978449
  84.9151230 103.6847782  50.4983950  86.1498070 104.4822979  50.1371479
  35.0210309  88.2834148   4.2614129  34.8472071  87.4150658   3.8981077
  35.1048422  88.1364822   5.2035475   0.9427506  65.4727745  25.4307652
   1.3641439  65.1847363  26.2405133   1.6465765  65.8810186  24.9265862
  21.1123562  91.7740536  12.7027309  21.3555193  90.8944035  12.9913890
  21.9035602  92.2965050  12.8341150  55.6356192   3.4973520  39.8347449
  55.1719379   2.6680592  39.9509597  55.1018858   3.9842319  39.2068028
  14.0624273 104.6811581  21.4198422  13.4424257 105.4069710  21.3489532
  13.6424172 104.0651417  22.0201302  29.3794727  32.5531411  62.8743792
  29.5887351  33.2618380  63.4828091  30.2291250  32.2656584  62.5402021
  10.5108345 105.5251789  26.8894815  11.3153124 105.8166695  26.4604330
   9.9418586 106.2948608  26.8798852  16.9425726  93.8354492  41.3421059
  16.9601011  92.8815174  41.4191151  16.0946238  94.0278912  40.9418774
 100.7585812  89.5354652  29.0039682 100.4103184  90.0735283  28.2930255
 100.0821781  88.8761139  29.1587687  93.6202908  91.2091923  16.5568447
  92.9317379  90.6274414  16.2348270  94.1227913  91.4408684  15.7757878
  15.0248456   2.1446182  32.6732588  14.5079589   2.9007345  32.9513741
  15.1568437   1.6371046  33.4740329  11.3297169 105.4643035  19.4426918
  10.5057804 105.7481107  19.8386884  11.1605255 104.5673091  19.1545820
  59.5791483   2.8341624  34.4757175  59.2147684   2.0029151  34.1715980
  60.2596331   2.5831476  35.1003456  30.9832692  94.3672085  22.5003004
  30.8127809  94.8862362  23.2862854  30.6691170  94.9134350  21.7797637
  82.5797844  92.4900723   5.4577410  82.2659206  93.3550644   5.1940858
  83.5083485  92.4911213   5.2253348  59.8283243  17.8997815  23.2197428
  59.9502420  17.6974213  24.1473317  59.4408131  18.7750185  23.2144570
  83.5421944  84.3352032  69.8430252  84.1252136  85.0942516  69.8301029
  84.1264820  83.5864162  69.9620438  51.1841869  21.5725017  10.6563365
  51.2095022  22.1701431   9.9090654  50.3798056  21.8037319  11.1208129
  94.2029667  97.6384163  43.6785603  93.6710262  98.1796932  43.0952215
  93.7711525  96.7841816  43.6727095  89.4283772  61.9998550  89.9868870
  90.2143955  61.5066099  89.7521114  89.5540810  62.2263575  90.9083652
  35.6887126  21.5437484  45.1604795  35.9380150  20.9412313  44.4597292
  34.7534823  21.3864183  45.2901983  47.3869467  10.1347482  23.2655740
  47.8824139  10.3594518  22.4780130  48.0484581   9.8262370  23.8848162
 111.5392113  54.5475721  22.5780869 111.6896534  55.4277134  22.9229736
 111.0961056  54.6905518  21.7417550  18.6644876  82.1969032  23.9892364
  18.3237410  82.2183609  23.0949974  18.6147034  83.1054497  24.2863894
  13.5608435  78.3968639  32.2317743  13.9880705  79.1941071  32.5449991
  13.1124330  78.0470896  33.0017209  67.4275970   4.0005845   6.5297651
  68.0905628   3.5458076   7.0492721  67.4465227   4.9014002   6.8528825
  44.1871452  55.4425573  19.2017579  43.5486174  54.8093081  19.5296443
  44.6924210  55.6952095  19.9744773   6.5460980  91.8550491  21.0989165
   6.0776681  91.5788937  20.3111672   5.8641928  91.9417858  21.7650342
  14.5638490  38.1495810   8.7654728  14.7751236  39.0823984   8.8035429
  13.7495410  38.0679822   9.2619348  77.1042871  87.0326042  14.4968593
  77.9461145  87.4646091  14.6415353  76.6325378  87.6191998  13.9056003
 108.2866669  83.7960911  12.7292717 109.0246010  83.2820415  12.4014902
 108.4662533  84.6885300  12.4334323  25.6610060  95.0428963  88.9994717
  25.1902795  95.5118847  88.3104897  25.2979231  94.1575050  88.9776134
   4.3536574  27.7404976  29.6970510   4.5992368  28.6530375  29.8493433
   3.4215844  27.7759767  29.4820786 106.5740967  34.6374631  10.2692986
 106.0410976  34.0836406  10.8397591 106.0097694  34.8208785   9.5182139
  82.5170517   4.1712523  56.9383764  82.5097275   3.4860381  57.6067019
  83.2880592   4.6994117  57.1452904  89.3627357  60.4728556  53.8246536
  88.6133385  60.1636934  54.3336248  89.1642284  61.3907528  53.6394835
  68.2970905   0.5933590  57.1293259  68.0097055  -0.0189706  57.8065968
  67.4914312   0.8491201  56.6801882  30.9595442 105.6957245  88.4938240
  30.2563739 105.9256935  89.1011906  30.7619619 104.7977734  88.2275963
  81.3209629  77.9304123   3.9451805  81.5419102  78.7170935   3.4466380
  81.6973114  77.2115231   3.4374487  98.5030365  76.3192701  20.7329535
  99.3819237  76.2913084  20.3547931  98.1199932  77.1263599  20.3892827
  99.2689800  58.1109047   5.4953796  98.8900471  58.9508247   5.2361923
  99.1478920  58.0761242   6.4442515 102.5879574  10.3370154  31.3647366
 103.4928322  10.1371932  31.1249161 102.6637268  10.9361053  32.1074224
  77.6504850   5.9841925  79.4592237  78.2242060   6.6728306  79.1232920
  78.1431770   5.5926245  80.1804447 111.5079021  62.8830910  38.2558966
 112.2814178  62.7505255  37.7078700 110.7696247  62.6817083  37.6809025
   6.4259112  83.4397984  18.2044613   5.7933098  83.9119434  17.6630569
   6.0021728  83.3671474  19.0596819  90.0262928  75.5038834   6.4923489
  89.8093700  74.5888329   6.3138521  90.9828949  75.5315065   6.4725780
  57.3284960   6.6014814  65.4873037  57.4888992   5.6597024  65.4276800
  56.4857292   6.6730028  65.9354782   5.1499337  84.0396023  22.8167796
   5.9865290  83.5911179  22.6934838   5.3741646  84.8373508  23.2958937
  87.3756886   2.7594158  67.2021151  86.9860744   2.0198631  67.6684761
  86.7631149   2.9429948  66.4898729  13.2033682  61.0883331  18.6162114
  12.3847783  61.4728975  18.9296639  12.9278600  60.3811312  18.0329490
  64.2050552  31.3998723  72.3913622  65.0513744  31.3656998  71.9454861
  63.5848951  31.0425329  71.7558002  59.6853161  33.9050508  91.2397194
  58.9394760  33.4326744  90.8698463  60.1464653  34.2580652  90.4788303
  77.7832556  20.3369927  77.2749805  77.1240425  20.1854348  76.5977097
  78.6127472  20.3709459  76.7985153 105.2223015 103.4318542  45.7509184
 104.9156380 102.5254345  45.7263899 105.8371258 103.4569359  46.4841223
  76.2126160  45.9752941  86.4386654  76.3931084  45.8388424  85.5085945
  75.2732849  46.1554432  86.4764500  18.0563211  58.8428545   8.7583762
  17.2728121  59.2312384   8.3691382  18.5110891  59.5794201   9.1668993
 102.7773952  45.0607443   6.1126143 103.2171154  44.8030853   6.9228518
 102.2724056  44.2884398   5.8581221   4.4122517  69.8604012  14.6880865
   4.5173869  70.6537151  15.2132809   3.9827350  70.1590157  13.8864779
  53.6174011  14.9924028  82.9480171  53.6786985  14.2765522  83.5804939
  53.5573053  15.7822728  83.4853458 111.4045836  89.0178680  11.0394084
 112.0857512  89.6216297  10.7432318 111.8772067  88.2180977  11.2701106
 107.8648376  18.8609326  72.1801758 108.4160233  19.5651281  72.5215387
 107.2734547  18.6482668  72.9021692  91.9400406  54.9648333  15.9378600
  92.8560543  55.1492262  16.1456132  91.9670677  54.1472101  15.4408753
  60.2620125  24.5889163  89.1059208  61.1975574  24.7104120  88.9439774
  60.2202272  24.1684580  89.9648094  13.5499132  85.5092144   2.7823785
  13.7040377  84.9775219   3.5632598  13.8127816  86.3931751   3.0387866
  62.0425940   3.9000541  10.8456123  62.8781652   4.2279577  11.1780775
  62.1815348   3.8018912   9.9036509  63.4611082  21.8984485  86.0114765
  63.7689257  22.7155924  86.4035892  62.9342222  21.4874840  86.6968441
   4.9712867  83.6440277  30.3002477   4.9891600  82.6870251  30.2922511
   5.0315213  83.8924217  29.3778038  94.9637032  62.2420359  24.1831470
  94.5704651  63.0011702  24.6136260  94.7454453  61.5041447  24.7524548
  68.1665754  19.5601130  87.7847290  68.5046005  20.0035477  88.5627556
  67.4322176  20.1036954  87.4992943  60.0147581  17.6585698  71.2528038
  59.2244577  18.1206596  71.5323162  59.8297596  16.7369068  71.4331961
  65.2495506  66.9361575  91.1966346  64.5629719  67.4280138  91.6471018
  66.0519269  67.4266489  91.3750758 105.8577824  87.7839851  31.2671685
 106.7804813  87.5376225  31.2025738 105.3806877  86.9699764  31.1059189
  30.2078629  87.9155159   6.0839838  30.7962322  88.2469654   6.7623580
  30.7087350  87.2256947   5.6486541 107.5914574  62.8288126  24.7244763
 107.8793335  63.1362915  23.8649297 108.0390358  63.4025669  25.3463387
  65.7356787  18.8827920  70.9342480  65.3315020  18.3872938  71.6465378
  65.1898384  18.6935878  70.1710367  10.4636598  68.6508226   5.6647468
  10.7417929  69.5647812   5.6051427  11.1997104  68.1527996   5.3091735
  74.3996811  32.1178198  77.3475981  74.5033407  32.1639061  76.3971424
  73.6261559  32.6512122  77.5303078  75.2996302  32.2129083  83.6729145
  75.0097847  33.1021619  83.8765144  75.3492355  31.7765427  84.5234203
  58.0936432  19.1318214  68.7141132  58.1825924  20.0019336  68.3252382
  57.1489477  19.0023506  68.7978745  72.9495716  28.0368447  51.1133385
  73.7621307  28.5005546  51.3157129  73.2357597  27.2141838  50.7164049
  87.3004150  68.4196615   3.6945292  88.0378151  67.8220987   3.5704553
  87.2337818  68.5240126   4.6436876  82.9451180  64.7889185  85.8215904
  83.8489342  64.9157715  85.5330563  82.4658775  64.5752001  85.0210381
  76.3853168  82.0445442   4.8065603  75.9569263  82.7892399   5.2286422
  77.2149181  82.3966885   4.4840968 111.6346394  90.9871864  14.9734521
 111.3518999  90.0828457  15.1093507 111.4243936  91.1687756  14.0574551
 103.0288410 104.1494751  25.3111744 103.7754059 104.6920204  25.5651736
 103.3720684 103.2559299  25.3083324  65.7687807  30.1969266  55.9294701
  66.2487030  29.4951558  55.4896688  66.4031649  30.9096432  56.0057640
  97.1203041  73.6980343  86.2534618  97.2506332  74.5465088  85.8299732
  97.7830315  73.1299639  85.8606148  82.2296810  88.1070614  10.7694018
  82.9309368  88.2987976  10.1467419  81.5265656  87.7408600  10.2329671
  75.0788593  16.4090180  65.0337267  75.0943089  17.3307610  64.7760773
  74.1659451  16.2408733  65.2672672  92.9601669  97.8987312   3.3001497
  93.8636398  97.7005959   3.5465738  93.0366898  98.5997295   2.6528710
   6.1533060  91.7271779   0.2756676   6.3952722  91.5494130   1.1845574
   5.1981916  91.6648768   0.2655014 111.4335537  23.3369303  58.7960148
 112.2403908  22.8295588  58.8844156 110.9291267  22.8705049  58.1295109
  28.9157343  70.2410078   8.3568317  28.3373952  70.6516552   7.7140826
  28.3464265  70.0460482   9.1012186 106.9370747  15.6089020  49.3627501
 107.1001053  14.8106682  48.8602781 107.2157574  15.3928661  50.2526379
  34.1893339  74.7614670  27.8694773  34.4325185  74.6569300  28.7893486
  33.9828491  73.8747168  27.5740600  18.2926142  59.1942120  24.5161152
  17.7413869  59.8079491  25.0016165  17.6753795  58.6700392  24.0057302
 107.9484558  63.6358547  91.3649082 107.9145145  62.7675533  91.7663193
 108.4200287  63.5014200  90.5428410 106.4694405  44.5078516   6.2957621
 106.3036442  43.8210392   5.6499833 105.7359791  44.4435930   6.9074261
  33.9003968  77.4137211  27.0010972  34.0525126  76.6253281  27.5221848
  34.7450876  77.8639460  26.9957232  98.4924507  81.4773369  34.3471909
  98.8550663  81.9984245  35.0635815  99.1710377  81.4930153  33.6722851
 108.2869625  95.8375072   5.5784869 109.2022419  95.6455135   5.7825279
 107.8143501  95.0432491   5.8275169  86.5362549  95.9265327  11.2451637
  86.7234421  96.1350441  10.3298938  87.3860264  95.6867695  11.6148114
  20.4984450 100.3947449  18.6616361  21.3294697 100.8451748  18.8124430
  20.0601888 100.9187984  17.9911685  85.7743835  57.3390198  18.2270718
  86.2917328  58.0746889  17.8993952  86.3137054  56.9563580  18.9191246
  27.9438686  74.0496492   7.3368227  27.6784182  73.7647629   6.4624047
  27.3365355  74.7572613   7.5528395 110.7999516  77.1146154  29.1872501
 110.1950169  77.7578115  29.5568204 110.3554249  76.7900562  28.4041238
   2.4327826  89.6361446  19.0584147   3.1393763  88.9996910  19.1674125
   1.7731380  89.3739986  19.7005832  43.7838364  99.0519714  87.8635788
  43.9947653  98.3134079  88.4347725  43.1124640  99.5396519  88.3407021
   2.4786565   2.0853679   1.7680344   2.9991767   2.6917283   2.2949299
   3.1233451   1.6062610   1.2473950 100.9756088  73.7341404  20.6974649
 100.3944969  73.0721569  20.3228831 100.5973244  73.9271307  21.5553045
  60.0970507   1.5341933  41.6061115  59.2648602   1.7014098  41.1637020
  60.7594204   1.8859869  41.0113478   6.2805074  74.8130226  26.2094283
   5.8549052  75.6032467  25.8767962   6.7283022  74.4436932  25.4483032
  57.1084309  15.3174567  22.6582456  56.4744568  14.9895203  22.0204616
  56.6644764  15.2336299  23.5021138 101.1842155  59.0725803  17.4250317
 100.8863068  58.1930876  17.6573479 100.3919315  59.5252371  17.1358514
  30.4584599  71.1203861  19.7049010  30.8788562  70.6852913  20.4466510
  31.1853743  71.4080477  19.1525638  56.5879679   5.5618030   3.7028605
  57.2982311   5.8242780   3.1173170  55.7900953   5.8277237   3.2457796
  57.1068525  10.6156278  78.6619902  56.3933277  10.0287151  78.4116888
  57.7074099  10.0628877  79.1620302  69.0053129  14.2019427  76.6169071
  68.2340670  14.1083050  76.0577583  69.6459818  14.6536338  76.0675955
  16.6010165  80.0545502   9.3901891  16.0535276  79.3261147   9.0971613
  17.4758148  79.6762133   9.4786274  98.1570721  60.8690262  13.7825751
  97.5918388  61.6415215  13.7830734  98.1871891  60.5936956  14.6988273
  32.2481823  95.4675770   4.1702327  32.4309158  96.3759041   4.4106421
  33.1030130  95.1045322   3.9385208  70.3435612  25.6464410  77.8698730
  69.7353601  26.3079667  77.5401735  71.1389351  25.7733679  77.3526669
  71.5447474   3.1812498  89.6251583  72.2019958   3.1797349  88.9292717
  72.0306683   3.4249091  90.4130268   5.1384526  54.3583584  19.1856015
   4.4214064  54.1841888  19.7953057   5.1798850  55.3131056  19.1310465
  50.7715893   2.0857222   3.7206489  51.1446524   1.3071889   3.3071956
  50.2158546   1.7423493   4.4202802  78.7791061  66.3966608   0.4832462
  78.9863300  66.6901684   1.3704589  78.8238525  67.1913195  -0.0484954
 107.8657818  62.0748472  35.1703262 107.6780605  62.9900789  34.9621320
 107.0794010  61.7652988  35.6197882  65.8642626  41.9173574  87.7002525
  66.2801695  42.6346016  88.1786060  66.2813282  41.9304085  86.8387890
  16.7469752  79.4245815  50.4390478  15.9162080  79.8835611  50.5631208
  16.5549350  78.7549353  49.7825956 108.8716221  89.3711185   5.9277552
 108.3047676  90.1030445   5.6844807 108.4518242  88.9889145   6.6984177
  97.7833557   1.7004587  81.3413715  97.9344654   2.2846879  82.0843887
  97.6384926   2.2883643  80.6000042  74.1901398   8.7588662  26.3330078
  73.7753963   9.2132133  27.0663476  74.7770739   9.4101316  25.9488297
   6.7101544 101.6410637  12.7678490   6.7256939 102.3970795  13.3547342
   5.8025038 101.3380146  12.7916181 105.4528999  61.2020350   0.7503708
 105.2105236  62.1019220   0.5319792 105.1724339  61.0922289   1.6589481
   5.7147050  86.9178104   4.8810744   5.8110005  87.5076580   4.1333842
   6.4997423  87.0684338   5.4076296 110.8929253  79.5495462  14.5684075
 111.1399841  78.6451197  14.3754959 110.2321720  79.4756603  15.2570057
   9.7425610  60.8111477   6.4966404   9.1974443  60.1139212   6.8612701
   9.5908105  61.5600824   7.0730978  63.8130379  38.9622140  81.4843845
  63.4265900  39.7909188  81.2012959  64.3147135  39.1871691  82.2679329
   6.6026288  62.4078846  27.6870894   6.4639932  62.3586607  28.6329174
   7.3726881  61.8617201  27.5291467  16.7728579  58.3914518  68.6981249
  16.1231208  58.9174128  68.2318258  16.5140820  57.4856138  68.5286236
 110.8265114  51.9425488  34.1334224 109.9801540  52.2849607  34.4209480
 110.8574486  51.0532522  34.4861650  98.0140114  78.6853886   3.9259976
  98.9324188  78.4197617   3.8790312  97.9174423  79.3373203   3.2318157
  99.8066616  77.3272562  12.1952760 100.4862690  77.9761314  12.3778403
  99.0831375  77.8350592  11.8280160  97.0411968  43.4001350  81.5291691
  96.7553806  44.1722775  82.0173740  96.6294003  42.6643372  81.9822216
  82.2782326  51.4491796  85.5035877  82.7000523  51.5605402  84.6515942
  82.9827023  51.5791845  86.1384583  88.6332512 100.6010056  17.7109694
  89.4018269 100.8046150  17.1779966  88.9558792 100.6158066  18.6120355
 106.2338543  54.5283651  78.5823202 107.0750618  54.9342203  78.3728170
 105.6636810  54.7681856  77.8518248   6.7420489   0.2839701  44.9150372
   6.7335540  -0.6589464  44.7505140   6.0052818   0.4302248  45.5083466
  95.9766579  87.8908157  17.7886927  95.1067638  88.2699490  17.9143143
  95.8765030  86.9728279  18.0407012  91.0259817  13.4214355  91.4949297
  90.6800161  14.0695621  90.8813612  91.5135513  13.9365007  92.1377443
  30.7088208   4.8456016  13.5543597  29.9829412   4.2290449  13.4584963
  31.3974023   4.4945651  12.9896820 106.1692047  86.7727566  25.1810074
 105.4867363  87.2878838  25.6112456 106.7249680  86.4657307  25.8973193
  12.2651386 102.1942520  19.7405386  12.7972162 102.5821972  20.4352474
  11.5658009 101.7330933  20.2036762  44.0623522  97.3094940  85.6895638
  44.9322224  96.9152355  85.7537079  44.1292715  98.1206036  86.1933994
  67.0788002  49.3438625  84.7839546  67.2433853  49.3234825  85.7266808
  67.1850777  48.4351492  84.5025730   9.2327207  93.4119225  62.0590258
   8.9875740  93.9619732  62.8030539   9.2316252  94.0078545  61.3099670
  71.3371229  29.7756147  86.4530945  71.6792440  30.1330662  85.6336975
  71.3050365  30.5258012  87.0467472   4.7803542  92.8170872  23.0755854
   4.6960106  92.4171257  23.9411187   3.9756742  92.5717640  22.6189280
   9.3331081  57.3123455  27.3263860   8.9091045  57.2085094  26.4745235
  10.2414775  57.0511007  27.1752310  81.3119602   5.6977969  79.4716454
  81.0370255   4.8127437  79.7110701  80.8741379   6.2646234  80.1066685
  44.3081665   1.1146579   5.6015754  43.6729145   0.9257418   6.2922257
  43.8859892   0.8105579   4.7981316   4.9564239  73.7120676   7.6685286
   5.6856495  73.1383133   7.9036176   4.2747894  73.5076094   8.3086866
  95.1658916  81.5233135  22.6316571  95.2882767  80.7638264  23.2012534
  95.7024670  82.2093868  23.0286670  77.5184441  67.0524359  74.3982029
  77.2624159  67.8683472  73.9681244  78.4090710  67.2147942  74.7090960
 105.2076340  14.2093337  79.0246964 104.6114159  13.7230301  79.5941353
 105.3292847  13.6410284  78.2641268   5.4529518  55.9689760   6.1516362
   5.6346762  56.6908836   6.7533505   4.6775460  56.2510204   5.6664246
 103.5845661  92.4447727  15.7159412 104.1132355  93.2302284  15.5752110
 102.6901054  92.7720070  15.8113039  60.0714159  16.1810541  49.0562963
  59.8959923  15.2808321  48.7823296  60.5885553  16.0913432  49.8567629
 112.4342760  66.2174082  12.9423797 112.9133802  65.3905773  12.9975235
 112.1623294  66.3971281  13.8423681 111.1440754  75.5182886   3.8414311
 110.6755543  74.7616005   3.4890848 111.3062096  75.2941847   4.7577950
   9.8829144  98.4003258   2.8371248   9.7693598  97.7515030   3.5316566
  10.8057213  98.3304501   2.5926316  40.0457430  79.9232674  87.4694443
  39.3068194  80.4168701  87.1136761  39.7775435  79.6996832  88.3606815
  37.0337009  89.1584301   2.5445196  36.8532014  88.9403057   1.6301489
  36.2530279  88.8709259   3.0179399 110.3258038  85.1858139  60.9939814
 110.2098656  84.8287296  60.1134825 110.3233337  84.4182968  61.5659475
  94.1781807  98.1461430  17.9723060  93.6699104  98.9553928  18.0271578
  94.8886108  98.3502674  17.3641479  95.2417088  52.1342611  82.8228569
  94.8043633  52.0923853  83.6732674  96.0871983  51.7093420  82.9671574
  32.7737808  71.8736744   2.7469751  32.8897905  72.7991676   2.5319394
  31.8445444  71.7923403   2.9617679  22.4846768  87.5006008  15.5069494
  23.3057690  87.2129631  15.9060812  21.8138885  86.9579220  15.9214103
  82.5142956  91.1773014   8.9955080  83.0395412  91.9724751   8.9058506
  81.8906784  91.3795471   9.6929562  65.1932049  27.1091866  78.1151342
  65.3350258  27.5188041  77.2617102  66.0131931  27.2510600  78.5881281
 104.9033260  52.7489948  32.8347087 105.4247475  52.8520679  32.0386338
 104.0828896  52.3577499  32.5346661 110.0962067  60.4241800  12.2674882
 109.2034817  60.6910992  12.4866366 110.6526566  61.0746956  12.6957762
   2.9665074  80.7932377   9.1154158   3.8995340  80.7406521   9.3226075
   2.6070967  81.3839436   9.7773170  92.7830219  35.1134658  65.7159948
  92.0266533  35.3318620  65.1715326  93.2653427  34.4626904  65.2060032
  71.4783049  56.0939932  89.7760010  71.0623360  55.2435637  89.9173260
  71.2988234  56.5846491  90.5780411  95.5589199  39.1681457  89.7028542
  95.8743763  38.6290050  88.9775658  95.5885506  38.5876346  90.4633522
  57.9097366  22.2485209  34.5190811  57.7620983  22.6962185  33.6860132
  57.7417612  22.9169822  35.1832891  72.3437405  -0.0074307  13.8977957
  73.1645346  -0.0946744  13.4131134  71.7400169   0.3980478  13.2754338
  99.4802475  96.5513802   6.9646782 100.3743935  96.7424107   6.6814196
  99.4604874  95.6002235   7.0702142  81.3946819  59.0014601  80.1242065
  82.1183109  58.9278078  79.5019770  81.4275646  58.1877375  80.6272125
 101.4230442  43.4920740  90.7808590 102.2256374  43.9980459  90.6541252
 101.7269802  42.6190090  91.0290813  71.4493942  38.2850909  87.2583866
  71.1350346  38.9862871  87.8291225  70.7452869  38.1604099  86.6220570
  44.6170807  27.3186350  14.3847775  44.7170687  27.1834207  13.4424663
  43.8132477  26.8502688  14.6099865  94.1900730  25.1754999  50.3354168
  94.3485737  24.8184299  49.4615698  94.3627167  26.1127567  50.2461052
  27.3478794  74.7684526  20.0509548  27.0157290  73.8850594  20.2107191
  27.2127128  75.2286100  20.8793354  19.5440543  79.8928404   9.6141088
  19.6158111  80.5806732   8.9523119  20.4416537  79.5837355   9.7365934
  94.8416615   3.5160735  80.2313232  95.4891777   3.6726436  79.5439768
  94.6822929   2.5727594  80.1998520  32.1508265  72.6909781   5.4963410
  32.0459676  72.2781849   6.3535661  33.0246878  72.4268055   5.2085745
  43.1004095  96.1999607  76.3510084  43.9911461  96.2650967  76.0066652
  42.5403070  96.2423134  75.5759430  46.3142872  11.0517061   7.2024095
  46.9842958  10.3691339   7.2400492  46.0624123  11.0894632   6.2797153
  18.2334089  97.5980854  39.1842580  18.2301319  98.4284401  38.7080956
  18.6834741  97.7948761  40.0058079  27.3677897   9.8001820  24.1977835
  28.3180547   9.8456025  24.0921307  27.0956421  10.7108104  24.3114614
  26.0543060  73.2228041  35.3432989  26.7647600  73.6976433  35.7745886
  26.4733624  72.4423170  34.9807215  20.2409840 105.0237656  16.1436915
  19.4533777 105.4713821  16.4528024  20.8265543 105.7301807  15.8710885
   6.7667025  43.5239792  17.5988770   7.0522743  44.2350054  17.0251811
   7.3274702  43.5992765  18.3709526  53.0022430  72.8010368  14.0094662
  53.1169224  73.4740639  14.6803713  53.3994389  72.0162725  14.3871009
  22.3965907  63.2714128  83.9552784  21.8581724  63.9445734  84.3714428
  21.7665172  62.6902819  83.5292149  84.0430546  30.1945519  90.6562519
  83.3665466  29.5593381  90.8909416  83.5847187  30.8487034  90.1287556
  81.0583401  48.4380960  83.0397701  81.9346714  48.7058926  83.3164597
  81.1113262  47.4852514  82.9655743   6.1768073  98.0212498  45.4603100
   5.5249500  97.6605511  46.0613203   7.0182490  97.7629662  45.8364725
   6.6258413  79.9784136   1.7566648   7.2404742  80.6051540   2.1383134
   6.3807642  80.3649044   0.9159533  56.2412930  11.2603533  89.4841290
  57.1166849  10.9695303  89.7397518  56.1518145  12.1272659  89.8799706
   0.8423621  88.6964321   8.3934468   0.0239629  88.7591076   7.9009771
   1.4149244  89.3491840   7.9905576  54.9379206   6.0554594  20.1858258
  54.6861362   6.9788933  20.1961064  55.4838324   5.9647340  19.4048119
  95.5283165  95.1374054  17.9562056  94.6109104  95.2826118  17.7248859
  95.7762527  94.3508816  17.4702549 104.6770859  80.2484226  20.6402898
 103.9059639  80.4550743  21.1683989 104.4222641  79.4753647  20.1366162
  60.4696274 101.8264008  12.8550899  59.9721813 102.6178360  12.6491654
  59.8397589 101.2552071  13.2946765  27.1722684  58.6687882  91.6638184
  26.3741479  58.7427826  92.1870399  27.0501313  59.2955203  90.9507114
  84.4928741  31.8053627  54.7193813  83.6893463  32.3175931  54.6288824
  84.8800564  31.8104911  53.8439941  53.9803028  99.9945831  13.0467355
  53.4005117  99.4536686  13.5829091  53.6015129  99.9540138  12.1686113
  17.9989314  73.7534571  26.3285017  18.9543772  73.7328959  26.3826632
  17.7430069  74.4863415  26.8885136  96.9445610  54.2843962  66.9130182
  97.4450684  53.7463427  67.5263882  97.1945381  53.9577293  66.0487080
 100.5959892  17.3643267  67.8423166 101.5263939  17.5538826  67.7212858
 100.1454544  18.0693400  67.3773336  18.6717248  62.5179815  14.8038912
  17.8620124  62.1668768  14.4333184  18.8781822  61.9289064  15.5295634
  95.7097530  42.1746397  66.6750383  94.9864960  41.7247963  66.2382603
  95.6378365  41.9095898  67.5919962  23.1057549  74.0327072  19.2783511
  23.2644510  74.9615288  19.1100121  22.2791982  74.0145302  19.7607446
 106.6326427  79.8481750  10.9143186 106.6819286  79.8343039   9.9584883
 107.4770260  79.5016670  11.2027383  39.6298480 103.1191349  23.0667400
  39.5153332 103.2868767  24.0021443  38.7483692 103.1916618  22.7007270
  83.9896107  44.2440701  91.3119125  84.6869755  44.8624134  91.0938263
  84.1524220  44.0121555  92.2262096  19.9879694  94.0055180  45.3246069
  20.7355404  93.6443233  44.8482513  19.2222309  93.6444092  44.8779774
  43.8675594   6.1390871  30.7934642  44.4373608   6.8390775  30.4747653
  43.5832548   5.6824988  30.0016737  78.0151129  10.0961065   6.1225909
  77.8870392  10.4393137   5.2382618  78.6592102   9.3959719   6.0168350
  88.2435036   5.5072236  18.3719909  88.4465218   6.0619998  17.6188374
  89.0877438   5.1391935  18.6328650  21.6588759 103.9038849  38.4627008
  22.2673678 103.5734558  37.8018045  22.2122788 104.1101837  39.2159724
  90.4272270  99.4018745  32.9883051  90.4292202  98.4689713  33.2025814
  89.5436478  99.5705795  32.6611161  17.3246348  95.3424835  72.3220730
  18.0697346  94.7541809  72.1997738  16.5589845  94.8041630  72.1215153
   4.1580239 103.2136440  48.2267857   4.1345432 104.1494370  48.4267092
   3.2381958 102.9493999  48.2089043 102.5561047  46.7259169  68.7600517
 101.7644310  47.1472979  68.4254885 102.2530937  46.2005234  69.5005798
  51.6886806   9.2060161  51.5531397  51.1285925   9.6980238  52.1535254
  51.8111134   8.3581978  51.9802761  66.2104750  11.7198229   9.9959564
  65.9195662  12.6151645  10.1690650  65.4003572  11.2197363   9.8966855
   6.4786524  50.2011395  82.1860790   6.1954367  50.6113434  83.0032444
   6.1263931  50.7672215  81.4992809  95.4773235  60.9440184  72.7559614
  96.0781479  61.6453743  73.0076551  95.8025551  60.6430006  71.9075251
 111.1450100  96.1849689  66.2801456 110.7374573  97.0481873  66.3507509
 111.6618061  96.0978603  67.0811272  59.8182869  85.3751183   7.0044631
  59.2250109  85.9136581   7.5281322  59.9261951  85.8624744   6.1877203
   6.5435910  38.6856818  86.4550495   5.9794843  38.7609363  87.2246933
   7.2203618  38.0603981  86.7143440 103.3499718  66.3390160  15.2126276
 103.6036682  65.8661890  14.4199717 103.4507370  65.6981087  15.9164166
  44.9747181  10.6435657  27.1216273  44.3474197  10.4780877  26.4178205
  45.3525591  11.4971697  26.9099021  29.6879482  51.8328667  69.7359371
  30.2984238  51.3428640  69.1850710  29.8762679  52.7514601  69.5437098
 108.5727787  63.5017776  54.6582794 109.5031357  63.2998180  54.5588684
 108.5193062  63.9846516  55.4830265  49.0257406  83.5356522  33.5755944
  48.9930153  82.7266884  34.0862131  49.5305395  84.1412640  34.1184163
  12.1810842  44.5185566  87.5818157  11.4689577  43.8977289  87.4279308
  11.7865932  45.2079344  88.1160069  33.5885286  93.3162403  22.8366399
  33.5164046  92.3625469  22.7979350  32.7589798  93.6338425  22.4799752
  12.1038425  83.3665180  35.6338239  11.3639140  83.2280731  36.2250686
  12.7181673  82.6652241  35.8506560  38.7295151  70.8711863  18.8819242
  38.7504601  69.9688435  19.2006314  39.4691110  70.9287691  18.2770145
 104.0639210  44.7269583  90.2265263 104.4481182  44.1714287  89.5482826
 104.7738171  44.8650312  90.8535862  47.0745230  76.3991690  17.6679432
  47.9324532  76.6083097  17.2985530  47.2381163  76.2854862  18.6041820
  37.3537626  98.9219235   0.8763107  37.5030221  99.7649668   0.4482540
  37.8698720  98.9672659   1.6811737  94.7755051 102.2990513  53.5385656
  95.2843094 103.0926037  53.7047815  94.7502518 102.2261810  52.5844812
  54.0396833  24.9106812  22.1700644  53.3061981  25.5195475  22.0833611
  54.4459391  25.1424742  23.0052018  14.8285890  24.6110630  -0.2436385
  15.5889404  24.9270320   0.2444825  14.1080594  24.6475506   0.3854389
  55.1017475  26.1255598  39.4680047  54.9287558  26.5618443  40.3022480
  55.9118938  26.5255880  39.1519833  63.4132147  21.0360050  53.2851887
  63.5003948  20.0835276  53.3228588  64.2726660  21.3439989  52.9975986
   6.0787636 101.9562244   3.3599406   6.9406199 101.5534592   3.2540405
   6.0525602 102.2281551   4.2773265  15.2969825  78.0379057   7.7518588
  14.5344639  77.7903032   8.2748234  14.9953628  77.9781342   6.8453908
  99.0968800  58.2592535  84.9886036  99.3367386  57.3335934  85.0316143
  99.8038387  58.6668730  84.4883156   0.7801516  26.5279913  81.6012573
   0.2845173  26.2303758  82.3641491   1.6967066  26.4043021  81.8479538
  89.4260311  40.1942682  77.4808311  89.1470051  39.9202609  76.6071653
  88.7157917  39.9138474  78.0580235  66.2642860  24.1356444   0.7183257
  66.1359215  23.9531016  -0.2124978  67.1750021  23.8936591   0.8864883
  76.7486620  62.4700069  88.9817047  76.1701107  62.5326538  89.7416973
  77.3275232  63.2284927  89.0581799  30.3580070  95.2512169  28.0092955
  29.4060636  95.3510189  28.0006075  30.6711197  95.9864521  28.5361886
  55.5898809  34.8913908  83.8839054  56.0965443  34.0865660  83.9924526
  55.8069468  35.4167724  84.6540260  79.5200920  12.8792655   2.8525221
  78.7897062  13.4963298   2.8078154  79.8039341  12.9098928   3.7661567
  33.6485314  81.2249470  26.5392065  34.5027995  81.1490822  26.1141157
  33.4808779  82.1667194  26.5735412  51.1475086 104.2175961   5.4603243
  50.5784321 104.9293518   5.1674265  52.0309544 104.5832729   5.4151976
  15.0362110  50.7392454  78.2331610  14.6428585  49.8757792  78.1069469
  15.4673874  50.6836843  79.0859413  14.2574036  80.6023407  48.2398367
  13.9332020  81.1524677  47.5267553  14.9253631  80.0510025  47.8323078
  70.0783539   6.8574136  13.3685637  69.9673557   7.6862293  12.9027569
  69.3020058   6.7891687  13.9243138  26.6342163 104.9621677  53.4391403
  26.2884521 105.0107288  52.5478935  25.9704685 105.3934002  53.9773798
  64.4059134   4.7762322   7.4613982  65.2922630   4.8050502   7.8216487
  64.0932417   3.8947040   7.6648110 107.6355743  41.7527103  86.2566566
 106.7668343  42.0460367  85.9819221 108.1833649  41.8659973  85.4799175
  39.7140455  97.2533703   7.7812123  39.7973251  98.1734180   7.5305831
  39.8440075  97.2507572   8.7295449  19.0183854 105.5444813  41.4354992
  19.9410546 105.2898121  41.4276838  18.6857188 105.2138329  42.2699118
  13.3658552  85.5673027  13.3023572  14.0252030  85.4996967  12.6117611
  12.8623927  84.7561550  13.2330608  54.0190554  91.0280323   5.9983081
  53.8388824  91.9653511   5.9261906  54.8050880  90.9763718   6.5421057
  32.5565100  88.7995911  11.2007844  33.4136724  88.4727669  11.4740789
  32.6185966  89.7492981  11.3029063   5.2987343  96.4725208  23.7266922
   6.0549152  96.5351772  24.3102121   5.6434172  96.0680389  22.9305625
  54.8689699  41.4579964  15.0958049  55.4272842  42.1646118  15.4201782
  53.9913321  41.8391514  15.0693262  53.7674904  72.2456264  24.5882320
  54.1915464  73.0686092  24.8313498  53.7658834  72.2506428  23.6310458
  52.1437168   8.9513665  22.4126148  52.4074745   8.2943070  21.7684579
  52.9118967   9.5142728  22.5088835  34.1471815   7.9030550  30.7718134
  35.0117445   8.3096886  30.7134342  34.2995572   6.9838190  30.5526805
  98.9169312  45.4336357   5.4988903  98.4287548  44.6631956   5.2084762
  99.2067623  45.8529615   4.6887052  54.4824553   3.0859825  26.0113978
  53.9392519   2.3162088  26.1805487  55.0849485   3.1219059  26.7543244
   6.2199426 102.4222851  41.8297052   6.4886272 102.6911354  40.9512043
   7.0289052 102.4326801  42.3412752   8.4945059  59.5272350  31.6068006
   7.6888359  60.0025320  31.8098259   8.3261907  58.6328650  31.9034505
  53.3883429  12.2170019   0.1091542  52.7671909  12.3010433  -0.6142691
  53.2803059  13.0239308   0.6125693 102.0736313  49.3350363  38.6953735
 102.6816845  48.7808323  38.2061338 101.2112045  49.1113138  38.3455372
  76.2071609  32.8202319  91.1682892  76.5453720  33.5986876  90.7257366
  75.2830553  33.0155134  91.3236046 102.0740318  94.4058323   6.4431834
 102.4514580  95.2108383   6.0885692 102.5053596  94.2918777   7.2900599
  16.3978529  19.3804753   5.0632858  17.0490122  19.9807870   4.7001761
  16.8145275  18.5198593   5.0190723  56.8863583  97.1878242  29.8229814
  57.6679516  97.3516369  29.2952371  56.2771988  97.8816986  29.5706105
  15.0626624 100.3317070   4.4839489  15.7862186 100.6997490   3.9767596
  15.1832604 100.6858540   5.3650075  32.5206709  57.0233011  10.4216397
  31.7712355  57.4138021  10.8711851  32.1643972  56.7091465   9.5906126
  22.7129292  73.8641882  46.9339514  23.1081390  73.7460423  46.0701895
  22.1734691  73.0834866  47.0593309  18.7293088  94.6025085  19.8074043
  18.4191871  94.7327137  18.9112437  19.6812952  94.6804428  19.7451115
  17.3329484  99.3662453  26.3275266  17.0338392 100.0306797  25.7068062
  17.3557389  99.8190308  27.1705580  24.3954492  87.4701977  67.6738644
  23.7509680  87.6440334  68.3599091  24.3993068  88.2658195  67.1416998
  74.1740942  96.0456085  83.9591789  74.3157482  95.3442764  83.3233356
  74.3328428  95.6342888  84.8087978  74.4089985   6.9633657  14.2480898
  73.9664268   6.1226070  14.1319716  73.7259245   7.5510103  14.5710695
  25.6357980  79.2579937  86.3363361  26.2183642  79.4303942  85.5966568
  26.2124205  78.9204407  87.0217514  15.9081125  26.6740990  87.3127937
  14.9839020  26.6696644  87.0637035  16.2936997  27.3771286  86.7900085
  13.1968760  57.2592497  77.0548201  12.7785075  57.7291584  77.7761984
  12.7067947  56.4398670  76.9865370   0.9450089  70.8938122  86.7151260
   0.7421102  70.1125908  86.2005806   1.9003808  70.9504128  86.6980267
  59.6716118  53.5457039  27.4369049  58.8665533  53.0512047  27.2833276
  59.8994207  53.9047766  26.5793490   6.1968797  94.9599743  89.5951748
   6.9115961  95.5030060  89.9276352   6.6342849  94.2471504  89.1295528
  86.1196327  66.7152643  87.3480892  85.8820915  66.7474794  88.2747841
  85.2848816  66.6167974  86.8901348  95.4681873  78.4936190  46.3630152
  96.2189198  78.9208603  46.7754316  94.7552872  78.6020517  46.9925022
 100.7671547  21.9897461  90.9189701 100.0019360  22.2103834  90.3879261
 101.1297226  21.2074876  90.5032158  99.1405010  23.1960988   8.8359714
  98.8716030  22.3947573   8.3867693  98.8715935  23.0629039   9.7449172
  89.3938255  62.9028988  65.6903315  89.8913670  62.2048616  66.1162853
  89.9627876  63.2047844  64.9822474   6.5254635  53.5416222  59.8828173
   6.4756089  52.9278755  59.1499710   5.6666780  53.9640093  59.9003315
  54.3298674  11.8154132  41.4127493  54.3725967  11.7866576  40.4569340
  55.1104736  12.3045623  41.6727877  39.5019889  73.6172390   0.5725863
  39.3724108  74.3926430   1.1186577  38.6165190  73.3349514   0.3434792
   3.4982279  67.5551939  63.2633352   3.5392839  68.4991550  63.4165716
   4.4025815  67.3033333  63.0764008   8.3166921  55.0170517  77.2137785
   8.4608936  55.2581596  76.2987328   8.1416601  55.8479118  77.6556683
  53.7893088  95.1865862   0.4796108  54.0560193  94.6018837  -0.2297703
  52.8884800  95.4285381   0.2646717  84.2732811  77.0456362  83.8291645
  83.3466053  76.8058538  83.8282776  84.3003559  77.8987312  83.3958912
  47.3375368 100.9738445   3.5947034  46.9737577 101.8533897   3.6962399
  46.5728807 100.3981590   3.5840461  97.3155117  84.5222759  18.6870587
  97.9397488  84.4902134  19.4119918  96.4653778  84.3592739  19.0956473
  71.4737606  14.3693483  13.3498228  72.0980406  13.7886560  12.9147327
  70.7601595  13.7926233  13.6225784  55.7937908  15.0534010   3.8023713
  56.5154839  15.0907266   4.4300669  56.1663771  15.3927326   2.9885733
  96.3657093  27.2259212  83.5749817  96.5777969  26.8329597  84.4216442
  95.9958744  28.0812383  83.7938213 103.2722378  95.3632450  12.8872788
 104.1532707  95.5580997  13.2067204 102.7310276  96.0755634  13.2277560
 105.3681564  63.9486837  51.3480616 104.7003746  64.2496490  51.9642830
 106.1988449  64.1848993  51.7608452  93.6528015  43.6899519  73.2134533
  92.7101898  43.6357594  73.0560207  93.7413120  44.3304682  73.9192438
  15.3042400  81.6626740  19.4345498  14.5157993  82.1632957  19.6442544
  15.2250016  80.8624363  19.9537492  26.5855670  53.2457590  73.1465006
  26.0549879  52.7525806  72.5208044  27.3337507  52.6766682  73.3270264
  27.9248524  24.4523287   6.8648386  27.5156426  23.6348605   6.5810764
  28.1244874  24.9152875   6.0511756  60.1515579  79.7536755  24.5832634
  60.8771896  79.1396236  24.6956182  60.2931166  80.1358414  23.7171555
  27.4045968  76.3881683  54.3040705  26.9491911  76.2163973  53.4798574
  27.2551203  77.3187923  54.4708776  93.5945034   9.9073839  82.9690266
  93.2671547   9.4099778  82.2195911  92.8143120  10.0959945  83.4905338
  77.7908421  39.7884321  78.0306435  78.6718607  40.1493597  77.9318142
  77.7678633  39.0445209  77.4287271 106.3959026 105.7374382  13.9040136
 106.7951298 106.1794949  13.1547201 105.9493351 104.9802113  13.5253143
  58.0278301  10.4454398  34.2305517  58.8713884  10.4221082  33.7787867
  58.1782293   9.9634403  35.0437498  43.1789637  84.0388584  15.5069959
  43.2237768  83.1033325  15.7044947  42.5622129  84.1003895  14.7775650
  62.9308605  26.3509941  25.7003474  62.5199127  26.0633874  26.5156007
  63.8705301  26.2738705  25.8655882  49.5298767 104.3747520   7.7639133
  49.8045254 104.9690247   7.0656037  49.1827726 103.6099148   7.3048121
  32.0332909 102.3662853  29.7124910  31.5839410 103.0791283  30.1665473
  31.3410902 101.7365456  29.5112109  95.1040363  22.7189898  11.3825309
  95.2382469  22.9452038  12.3028827  94.4548130  23.3505392  11.0728729
  31.7827392  88.1040001  18.4636998  31.8395615  88.8863564  17.9151332
  32.6450539  88.0357170  18.8735521  92.9908276  71.8451643  91.1550999
  92.4172306  72.6113844  91.1437416  93.3726311  71.8187666  90.2777481
  68.7435341  17.8954720  18.0369961  69.3886709  17.3134470  17.6354051
  68.0500412  17.9727840  17.3817670  21.3802433  92.2192574   4.2858610
  21.4202166  91.2630463   4.2688385  22.2108245  92.5005722   3.9021602
   3.4172699  89.3539143   0.6202459   3.5522339  90.2200890   1.0046426
   2.5461382  89.0925407   0.9186505  24.7874069  83.4424305  56.5008879
  24.0853500  83.6086464  57.1299505  24.7980595  84.2200756  55.9428549
 109.2564201  91.4884949  88.4585381 108.4042358  91.3988209  88.8851261
 109.7251606  92.1300125  88.9923573  93.2611752  44.0861511  81.3598824
  94.1522217  44.2983055  81.6378212  92.8888416  44.9251080  81.0882854
  87.4743652  74.7573948  46.7441797  87.7423286  73.9367962  47.1577549
  87.7372646  74.6612883  45.8288240  84.3229294  51.8812609  78.3134651
  85.1015377  51.6887665  77.7910280  84.1837978  51.0914087  78.8359737
  96.9702435  38.9727306  76.2093687  96.4004326  39.3614483  75.5457115
  97.1348667  39.6830416  76.8295240  31.2675333  96.7635918  87.0034981
  30.4156852  97.1408081  87.2232533  31.1970925  95.8451366  87.2637272
  66.8743372  34.8470855  89.4469643  67.3146868  34.9716425  88.6062431
  66.1094713  34.3102694  89.2395020  16.2450218  40.6011868  10.9571815
  16.9278419  40.4166937  11.6021228  16.5558326  40.1845026  10.1534402
  95.6976414  28.4653521  63.2791138  95.2161980  27.8824711  62.6920080
  95.0918961  29.1864157  63.4504700  40.1870203 101.3896275  82.4367046
  40.5796289 102.2025490  82.1185112  39.2456245 101.5628242  82.4381447
 109.2479420  19.6974814  18.4456849 109.9884033  19.5935607  19.0432954
 109.5200539  19.2464578  17.6464593   4.4969711  70.1142883   8.9091694
   4.9910823  70.9308004   8.8357270   3.7802082  70.2108574   8.2821465
  55.4664803 103.2422447  53.7394142  55.7001448 102.8989220  52.8769970
  55.3633881 102.4640274  54.2871189 110.8409214  25.8107710  88.3440876
 111.1228085  26.7012000  88.1345272 110.3029728  25.5478501  87.5972843
  19.3675518  46.8472338  14.0090203  19.9744213  46.5976715  13.3121276
  19.8097336  47.5619841  14.4670999 110.4971027  77.8224421  20.9155512
 111.4138985  77.5888062  21.0609412 110.5174160  78.4164906  20.1652670
  90.8982849  41.9329643  67.7432489  91.0662365  41.6094923  68.6283445
  91.2018585  42.8406239  67.7583408   3.7683257   7.1394712  67.9957342
   3.4676901   6.7557853  67.1719408   4.6226647   7.5169933  67.7864170
 108.9300251  39.2440701   9.7809905 109.1697407  38.6566114   9.0642911
 108.1458187  38.8492084  10.1622307  39.7499251   3.8947487  50.4939365
  40.1586628   3.0423388  50.6441450  38.9135599   3.8442060  50.9567213
  69.6272278  18.7687516  75.9680605  70.5365324  19.0662098  75.9983492
  69.2809010  18.9681566  76.8378448  79.3902636  53.3019114  35.9801316
  80.3432560  53.2185268  36.0130811  79.0677404  52.5766945  36.5151739
 105.5815601   8.2413590  74.3904018 104.6725178   8.5047108  74.5336485
 105.6798744   7.4348640  74.8964977  86.3108730  36.9223928  57.3680592
  85.9920883  37.7972651  57.5898743  85.5565929  36.4858747  56.9721556
  14.2715228  29.4553828  24.8949432  13.8503790  30.2029109  24.4705939
  13.7484705  28.7006354  24.6247506  86.9037914  22.1332431  77.6844597
  86.4829922  21.4675069  78.2284737  86.1956596  22.7325916  77.4487400
 105.8777809  21.7645288  44.1499615 106.6819477  22.2800279  44.2117357
 106.0719299  20.9594154  44.6298885  73.1342983  55.1801491  32.9917741
  72.7726746  55.9936333  32.6400614  73.7747765  54.9002886  32.3377872
  31.0721588  36.8013430  29.6604323  31.0414529  37.3451138  28.8732839
  30.2755475  36.2723923  29.6173573  51.3497162  10.4800367  87.8007030
  52.2763062  10.6147587  87.6019192  50.9765100  11.3614154  87.8117371
  62.5530672   4.2760935  77.1427155  62.9432821   4.4399631  76.2841606
  63.0005264   3.4931564  77.4636793  34.8431277   5.0455344  83.1319046
  34.2354989   5.3439063  83.8086605  35.1559281   4.1978103  83.4477425
  88.6464024  22.4800944  80.5057812  88.0068398  22.4770427  79.7936058
  89.2307186  21.7487097  80.3060913  35.7027531 101.8797398  56.3270044
  35.6961656 100.9243202  56.3849497  36.5022588 102.1418667  56.7834234
  80.7540186   0.5658120  77.5671101  81.0650690   1.4551038  77.3978615
  79.8040064   0.6206102  77.4636555  51.5512276  29.6848965  89.9442387
  51.5289783  29.4108391  89.0273857  50.7743120  29.2832255  90.3332138
  97.6541328  50.2508116  20.7168937  97.2238827  49.5041370  20.3002405
  97.2797108  51.0165930  20.2814364  79.7577763  12.8241658  72.7175379
  80.4141712  12.7734494  72.0227003  79.8066187  11.9745147  73.1556463
  81.6877842  66.9846249  60.8501816  81.6186905  67.2306633  59.9277306
  80.8739376  66.5157413  61.0346222  65.4173183  12.5686479  18.8196385
  65.5842066  13.1362021  19.5721424  64.4653654  12.5768435  18.7199163
  12.6968646  20.8461237  77.2805977  12.0817864  20.1231980  77.1569490
  12.2521269  21.4378428  77.8874826  96.8963051  94.5371056   4.0001962
  96.5173054  95.0716877   3.3024722  96.1538219  94.0522671   4.3606079
   3.8994637  64.7780752  23.7862015   4.7372326  64.7611475  24.2488980
   3.3090049  64.2685652  24.3411732  46.3825321  45.9167051  16.5999961
  46.2275457  46.8275070  16.3497055  46.7351389  45.5077934  15.8096206
  30.5450034  54.6700239   0.2702642  30.6128836  55.4089928  -0.3343414
  29.6417999  54.7008419   0.5857147  87.5228500  35.6860280  25.4765224
  88.2132339  35.1563907  25.8753872  87.5271130  36.5016818  25.9774423
  16.8874657 104.6517181  86.1432457  16.8615770 103.9313602  85.5134392
  16.0427105 104.6085930  86.5913105  21.2629700  77.2576809  12.2311091
  21.7863131  78.0262184  12.0037436  21.8902588  76.5347195  12.2395837
  28.6886573  65.3783035   1.4671060  27.8376532  64.9827623   1.2785093
  28.4988785  66.0577250   2.1141037  34.7843742 100.9400845  70.1290941
  34.3642616 101.4038849  69.4047832  34.3988562 100.0641918  70.1083565
  39.6018553  83.7519264  82.0049095  40.5293989  83.7727833  82.2404099
  39.1411710  83.7779427  82.8435612  20.9302892  80.4264758   1.1517319
  21.1340322  79.5232270   1.3943371  19.9737920  80.4621146   1.1426911
  76.7295170  36.6796970  81.7476368  76.4623260  36.0713315  81.0586357
  77.0107603  36.1164308  82.4686527  19.0036750  62.7431393  30.3180695
  18.1864059  63.2413578  30.3091693  19.2753541  62.7122498  29.4007540
  97.9248714  19.7192979  81.8663216  98.7753868  20.1468468  81.7660332
  97.9199982  19.4048512  82.7703857  80.7262135  74.3977737   1.0712472
  79.9058676  74.8386240   1.2923937  81.4082718  74.9732304   1.4174938
 107.8867722  72.1478462   9.0218365 107.8417301  72.3306751   8.0833399
 107.6986504  71.2120056   9.0928388  86.9705296  52.1614981   4.4667283
  87.0489597  51.4192390   5.0660032  87.7731419  52.1346378   3.9458439
  14.4403958  83.7053776   5.1110971  15.2817345  83.2502937   5.0752318
  13.8538492  83.1665993   4.5801339  69.4324636  33.3362675  82.8623199
  70.1574850  33.1679535  82.2604465  69.0418434  34.1504836  82.5449848
  80.7442093  98.2031727  84.0029240  81.3204288  97.5801659  83.5601330
  81.0882759  98.2556438  84.8946095  83.5656452   5.5649883  65.6468821
  83.7115383   4.6604332  65.3698874  84.3729687   6.0212821  65.4097080
  65.8973265   3.6482769  21.2759542  66.2812471   3.9617252  22.0948482
  65.3530264   2.9049712  21.5356874  62.4927902  96.8339157  77.0996571
  62.3980665  97.7542591  76.8542433  63.3928013  96.7622185  77.4175787
  92.0170593  27.4447131  59.2221117  91.5218830  26.7205548  58.8391924
  92.9167652  27.1213317  59.2689323  83.9537907  27.1426535  68.4174013
  83.4536839  26.5694308  67.8364229  83.2917976  27.6828837  68.8488436
  24.1245341  72.3833609  41.6031885  24.7397757  72.2803450  40.8771753
  23.3020544  72.0214939  41.2733269 111.7915535  99.8392963   1.2119599
 111.0705566  99.7518253   0.5884664 111.9917202 100.7753181   1.2168697
  17.8178608  23.0133796  81.6096973  16.9347346  22.8409243  81.9361591
  17.8658938  23.9669085  81.5410709  21.9791174  79.7173738   4.2254472
  22.5226903  78.9577341   4.0163845  21.1040640  79.4767761   3.9211047
  33.7154388  55.2272177   3.2533863  34.3488479  54.5348501   3.0645591
  34.1839361  56.0394382   3.0609304  24.6157742  86.4060020  16.8004191
  25.3375959  86.7911243  16.3035405  25.0084114  86.1525917  17.6357961
  72.3107672  18.4574091  85.6132603  72.0602322  19.2740667  85.1813602
  71.8549252  17.7757299  85.1195431  12.4669421  92.4239159  17.5467563
  12.9650474  92.5425053  16.7380166  12.1448100  93.2996368  17.7602386
 110.0286770  70.6338215  28.7526488 110.4119396  70.6260300  27.8755617
 110.4052734  69.8675728  29.1854000  29.3537617  77.3152161   5.0407684
  28.9255214  77.4147654   4.1905147  29.7262907  76.4337397   5.0195706
  11.2223327  62.9100084  23.3303261  11.6172254  62.6911020  22.4863052
  11.8582070  63.4902048  23.7489820  46.5731382  22.8713560  70.9691191
  45.8411503  22.2871208  71.1668444  46.3368797  23.2775450  70.1351976
  16.5877724  72.2228861  29.1143513  17.5217557  72.4203873  29.0443516
  16.4284527  72.1490002  30.0553012   2.9814449  15.7103634  89.0956402
   3.9078909  15.9140468  89.2238712   2.5168049  16.4385188  89.5081139
  25.2796769  51.5266752  21.1745667  25.1428509  51.9680023  22.0128655
  25.7894564  52.1494722  20.6564164 105.7353687   1.0181797  71.6996050
 106.4594364   0.7469375  72.2638559 105.3053284   1.7229687  72.1839333
  10.5921912  60.4869270   2.7980894  11.4836061  60.6121922   2.4726366
  10.3488100  61.3375759   3.1633204  79.3217945   3.5273963  71.9912004
  79.7233343   2.6802462  72.1844292  79.9827147   3.9947611  71.4803267
   0.1485015 100.6233788   5.2298874   0.3698832 101.4068127   4.7264439
   0.5939673  99.9105835   4.7719431  60.4360485  21.7549896  53.2456493
  60.1235962  21.0232401  52.7135324  61.3900805  21.6837621  53.2142496
  83.9879322  44.7036123  83.7602043  84.8692322  44.6555996  83.3897686
  83.5536766  45.3921938  83.2567120  88.2761669  18.3682728  89.4025707
  88.3221054  19.1269743  89.9843788  89.0749550  18.4202003  88.8777256
  72.4554253  89.3492317  57.9762220  72.1809959  89.5969772  57.0933056
  73.3915949  89.5472717  58.0004740  33.1615591  91.3365936   8.4479499
  32.9735541  91.4039612   9.3840843  34.0479898  91.6858959   8.3559346
  96.5479660   2.4077211  89.8967838  96.2921619   1.4869942  89.8414993
  97.2435474   2.4239922  90.5541611  10.9609294  82.3365116  38.7189150
  10.4594219  83.0907059  39.0286040  10.4277301  81.5789986  38.9599609
   1.2828141  21.8463993  59.1378927   2.1489456  21.9820952  59.5221281
   1.0456214  20.9542537  59.3909693  91.7605019  40.4879856  84.3577862
  90.8664703  40.1638174  84.2488861  91.7160416  41.4067650  84.0930271
  97.4052620  43.8848782  56.4972925  97.4948215  42.9340649  56.5618038
  96.6668606  44.0952301  57.0689058  25.8261657 103.3036613  32.5045514
  25.4715276 104.0451527  32.0139742  25.1030183 103.0179691  33.0628204
  85.2642155   0.8616571  83.8045883  86.1943150   1.0273147  83.9585209
  84.8176479   1.5999709  84.2189598  70.5239868  25.9504199  73.6014080
  71.2939358  26.4389229  73.3102465  69.8697710  26.1062646  72.9202700
  37.0542955  70.1707792   6.8707407  37.5497913  69.7985983   6.1412221
  36.1900234  69.7646141   6.8051964  46.4269829  67.9691982  17.1219110
  46.8532419  67.3737526  16.5054834  47.1410370  68.5000992  17.4747658
   3.0790803  67.0551443  25.3723598   3.4755039  67.9200935  25.4769754
   3.7411532  66.5427732  24.9082780  17.5263274  74.8083258  31.1722851
  16.6164577  74.5941448  31.3784266  17.5606275  75.7643604  31.2048364
  99.5703793  19.2010617  78.8566542  99.1965199  20.0726438  78.9862776
  99.3501568  18.9780664  77.9522181  13.6663616   1.3487954  60.9970665
  13.7281859   1.3607563  60.0419426  12.8887486   0.8215123  61.1801624
  15.6421661  97.1485233  23.7486768  15.2484286  97.8959274  24.1987634
  16.4619207  97.4892139  23.3906794  11.4242029  78.2816553  19.0657389
  11.2762010  78.6924648  19.9175406  12.3115039  77.9269981  19.1218066
  81.7590618  33.6590505  83.5774994  81.2584972  33.6737943  82.7617550
  82.3314476  34.4241881  83.5211372  21.5477133  27.7541304  25.1085782
  20.7694602  27.6180458  25.6489849  21.2598038  27.5510621  24.2185783
  72.5650263  43.1513309  79.7199726  71.9619799  42.8205872  80.3856945
  72.0987749  43.0298471  78.8928795  90.2602386  64.7750902  75.3781128
  89.6991348  65.3213692  75.9285450  90.9105301  64.4154406  75.9814358
  57.9813528 101.6169167  89.8300838  58.1623459 100.7413101  89.4883442
  58.4776592 101.6623878  90.6472969   6.1376691  61.8219852   7.3439193
   5.5379277  62.4807501   6.9938159   6.5987659  61.4854145   6.5755814
  30.5763030  60.9714603   0.8029526  30.9715819  61.8400860   0.8769006
  30.2939391  60.9137249  -0.1098286  28.0056334  78.0414152  19.4931257
  27.1926808  78.3794785  19.1175556  28.3634329  77.4693775  18.8141668
   1.4712445  41.4931011  28.7897062   2.0218334  41.4842367  29.5726514
   0.7198943  40.9462023  29.0190649  59.0413809  16.6789949  77.3084879
  58.8708973  16.0007238  77.9620266  59.9593782  16.9149494  77.4420452
  40.5581379 100.9472847  33.2071757  39.7089267 100.5788517  33.4507442
  40.3768253 101.4719200  32.4273562  15.0108182 105.3358841  17.4230945
  14.3001962 105.9582043  17.5778949  14.6771562 104.7569656  16.7377043
  12.3277640  40.2664566  20.5267882  13.0396187  40.7591677  20.1184583
  11.7150652  40.0939083  19.8119044  26.5941310  70.5547190   7.1407747
  26.4364100  70.4133081   6.2073088  25.8405638  71.0656309   7.4363041
  73.6892748  46.3031054  85.5291080  73.3524275  45.7279921  84.8420811
  73.8537502  47.1352482  85.0855827  61.1228609 102.9361629   5.4751158
  60.9444332 103.7500954   5.0040495  61.9474316 102.6210308   5.1049691
   0.3167135  35.2680826  86.6035271   0.6542856  34.4128108  86.3374805
  -0.0964373  35.1090717  87.4522114  11.1786187   5.5545169  75.1551676
  10.2460492   5.3987813  75.3044701  11.6177654   4.8415798  75.6189585
  16.2566817   9.8605394  90.2552700  15.4175210  10.3200519  90.2254295
  16.2907255   9.4807994  91.1332607  57.1320248  36.3080168  88.4887886
  56.8982887  35.8152962  89.2754459  57.4517155  37.1478891  88.8183975
  86.6456509  38.4300184  73.0210686  85.9488964  38.4199691  72.3648214
  87.0192623  37.5493908  72.9872322  79.4584990  20.6456685  46.2326336
  79.7392368  21.5584350  46.2980413  78.5058880  20.6932664  46.1520195
  19.9334204  84.6847916  39.7614288  20.2493906  84.0525436  40.4069233
  19.3708324  84.1729259  39.1802883  90.0674534  75.6270695  37.0582414
  89.7183514  75.8728456  36.2015319  89.7078228  74.7552967  37.2222972
  12.8517270 106.0073853  13.7309623  11.9063485 106.0407734  13.8771677
  13.1535566 105.2836227  14.2798781  72.1590376   4.5314386  62.4211311
  72.1100521   3.5846055  62.2894526  72.4229002   4.6327364  63.3356524
  97.3179245   6.6794103  79.5566463  97.2990894   6.7152715  78.6003065
  97.5876331   7.5580466  79.8240089  97.7012634  66.8676329   9.6053123
  96.8715286  66.5108204   9.9222749  97.7967930  66.5055037   8.7244219
 101.2497616  10.2002227  89.0176678 101.5559864  10.8461583  88.3810902
 100.6763935  10.6944668  89.6035099  24.5440054  73.3150291  21.8430662
  24.0035772  72.9922247  21.1219764  25.4219818  72.9860687  21.6502547
  59.6450377  89.7667789  89.1838932  60.0151253  89.9061584  88.3122063
  59.3061113  88.8719082  89.1599178 108.5875416  27.7427459  85.1252747
 108.6413383  27.0879841  85.8214283 109.2741489  27.4921656  84.5072079
  95.7556152  14.4735098  84.6269035  95.4946804  14.5090795  83.7066460
  96.6626453  14.1683388  84.6070480   3.6898750   1.9837008  80.0435829
   3.7024507   2.1567398  79.1022348   4.6125206   1.8985400  80.2837944
  83.9651299  70.5069685  80.2426624  83.8133049  70.9462976  81.0794258
  84.0161133  69.5775652  80.4658985  24.8315811  52.8545713  12.3259008
  25.7612514  52.7125597  12.1476388  24.5009208  51.9915485  12.5750673
   1.5265241 104.1793251  11.4986134   2.4694097 104.0202904  11.4549458
   1.1619130 103.6549568  10.7856441  25.9540166  95.5961893   1.2896904
  26.0335531  96.2923287   0.6375393  25.0568285  95.6734036   1.6142353
  42.3283911  83.9417934   2.8862166  43.0617189  84.5569611   2.8801346
  42.1870470  83.7284851   1.9638544 103.4056854  22.4699736  82.1223259
 104.1368484  22.0056868  81.7148018 103.3418846  23.2912302  81.6347790
  95.2726746  30.2919531  70.9821892  95.2461910  31.1240220  70.5097580
  96.1173344  29.9088931  70.7454395  66.3921574  90.5880244  91.9244325
  66.3072136  91.3625081  91.3683849  65.5315068  90.1707537  91.8870233
  80.6204987  30.5153394  71.6913509  79.7199965  30.8386993  71.7189932
  80.5667210  29.6265531  72.0426321  95.7127285  63.7019300  83.5647011
  95.1321602  64.1085052  82.9213715  96.5801811  64.0499401  83.3581924
  62.2049141   0.8118424  15.2595901  62.8095961   0.3136477  14.7096872
  61.7701817   1.4125246  14.6542633  25.0621724  69.8224974  23.4618044
  25.2200532  70.5779743  24.0279865  25.9154725  69.6331358  23.0716085
  99.9416256  11.3356793  73.6824036 100.8945084  11.2448716  73.6808634
  99.6599770  10.8913755  74.4820929   2.4024592  36.1289525  78.7386227
   2.6402581  36.9023395  78.2272005   2.3035532  35.4331756  78.0887461
 102.8225708  11.1542726  42.4290991 102.0075512  10.6800151  42.2646332
 103.4645844  10.7323968  41.8580723  27.7353692  58.4295034  34.0021777
  27.9614592  59.0600634  34.6859264  26.7941999  58.2899189  34.1068101
   7.3646683  34.0958405   2.0629291   6.9044012  33.9750981   2.8934756
   8.2068831  34.4782639   2.3092216  88.6892796  14.7106194  50.9750080
  87.8610229  14.9940491  51.3621664  88.8383102  13.8384473  51.3401604
  82.0169640  28.4424448  90.7229137  81.9459915  27.5294423  90.4443073
  81.1479950  28.8101935  90.5620384  39.7792324  61.3047276  -0.2110687
  40.3705989  61.7336283   0.4074558  38.9101113  61.6298423   0.0238022
  89.5814419  32.7563596  62.0785427  90.0836849  32.5906515  61.2807178
  89.2642307  31.8935800  62.3454094  99.1682434  25.5573177  85.8607578
  98.9357758  24.9645042  86.5754318  98.6909008  25.2183104  85.1034927
  44.3069553  82.4198341  44.6301174  44.1989279  81.4847755  44.4562626
  44.5084667  82.8006554  43.7753677  33.9097285  78.2812929  12.5777864
  34.7804141  78.0415249  12.8950405  33.8782954  79.2342949  12.6616454
 103.9016056   6.5013951  86.6163826 103.7593460   6.8200767  87.5076866
 103.2422829   5.8175755  86.4984226  42.5547457  48.4515905  12.9720283
  42.4012089  47.5343037  13.1983948  42.6116276  48.9001989  13.8156796
  11.9663858  75.4844904  12.3771167  12.7682674  75.6817913  12.8611529
  11.8898618  74.5312643  12.4187994  66.2887716   7.0467085  21.9528484
  66.2422609   8.0026817  21.9392800  67.1667528   6.8542749  22.2820044
 106.5916824  75.1704311  90.9570312 105.6764889  75.1801825  90.6767273
 106.5532207  75.2977514  91.9049454  32.4376917  78.6427069   5.3756726
  32.0018125  77.8528595   5.6956422  33.1717873  78.7711906   5.9763604
  13.6997044  70.7012653  19.3236768  13.0862820  71.2129164  18.7962699
  14.5597291  71.0618734  19.1079199  17.2755980  87.1017075  12.1000504
  16.5469921  86.5531254  11.8094957  17.6430309  86.6342926  12.8502142
   0.7106305  84.8914433  22.8493214   0.6855212  84.8400497  23.8048100
   0.0939489  85.5901337  22.6307607 100.4729939  27.1501970  76.5324879
 100.6165409  26.4626145  75.8822107 100.9248447  27.9150581  76.1760426
  40.6886292  81.1536980   2.1791162  40.8974695  81.0440159   1.2514369
  40.8610106  82.0785427   2.3557092 100.8909035  43.5602379  74.9888468
 100.8821869  42.6078701  74.8931932 100.0087929  43.8342524  74.7377968
 110.3804016  57.7959013  87.5346184 110.9180069  58.0102253  88.2970333
 111.0122585  57.6301861  86.8349552  25.1557398  58.2054138   9.6985567
  25.3491497  57.2719288   9.6123743  24.2981768  58.3113527   9.2867392
  65.4645538  23.6003137   5.9323162  65.5223513  23.3576655   6.8564445
  65.8956528  22.8823376   5.4687512  98.1770134  59.0958548  78.9493942
  98.5869884  58.3420992  78.5251331  98.8636971  59.4585133  79.5090199
  33.1579256  85.8134651  10.0909698  33.3363724  85.4898548   9.2079818
  32.2031856  85.8088017  10.1593709   6.6501158  27.2693300  58.5738611
   7.1945077  27.1988845  59.3580246   7.2119099  26.9592094  57.8636217
   4.1213909  89.8307228  14.4416761   5.0424325  89.7685909  14.1885877
   4.1389617  89.8902225  15.3968632  48.7844896 102.1424198   0.7856001
  48.5088778 101.2378407   0.6372923  48.7697172 102.2443485   1.7372438
  21.3132787  61.3699436  45.0075626  21.9312215  60.7327747  45.3658867
  20.9204578  60.9261036  44.2559433   9.1054620  64.7005234   0.5534825
  10.0619115  64.6647404   0.5663284   8.8957014  65.2227960  -0.2207676
  84.5515347  29.7382760  73.6888123  85.4032898  30.1713324  73.6322260
  84.1930962  30.0236773  74.5292282  75.6224966  47.5775099  81.5253925
  75.1108789  47.0631647  80.9009457  75.8089638  48.3960438  81.0655403
  11.8520975  86.1706448  15.3660202  12.4623954  86.0702610  14.6354783
  12.4083889  86.1677456  16.1449707  63.0030298  76.3064718   9.0036374
  62.0647717  76.1705875   9.1357070  63.0706263  77.2001219   8.6674106
  41.6804171  93.6669731  14.0229821  40.9694052  94.1026020  13.5529637
  42.3931694  93.6167908  13.3860362 111.4800644  41.9461298  89.4750118
 110.8832169  42.6275969  89.7842216 112.2641850  42.4212551  89.1999626
  55.6390858  12.8369403  15.5792546  54.9826622  13.2279372  15.0026608
  55.9233141  12.0477557  15.1181304 107.2266674 101.4289188  13.6551583
 106.9050407 100.5321217  13.5627663 108.1375027 101.3879299  13.3637345
  59.5268679  89.1311836  14.4128501  59.3543816  88.3183479  13.9376891
  60.4286814  89.3558121  14.1837132  17.7649426  67.3961210  59.9690294
  18.3834755  67.5877476  59.2640972  17.1340835  66.7925644  59.5766401
 101.8647003  50.1382065  84.6798801 101.2374783  50.8100414  84.9471855
 102.6549339  50.3344965  85.1831055  44.8238897  85.5871964   2.6225156
  45.2049017  86.1001110   3.3352464  44.9814796  86.1129093   1.8382818
  80.8365917  37.9049134  64.1234112  80.0136185  38.1857967  63.7233496
  81.4668846  37.9093671  63.4030342  88.8831615  39.1008782  75.0508308
  87.9719448  39.1906691  74.7717953  89.3858242  39.1177964  74.2364120
  23.2522297  82.1210289   3.9851850  22.8044820  81.2847996   4.1135365
  23.8292098  82.2028065   4.7445524  63.2253885   8.3126748  90.4671001
  62.9148245   7.7619964  89.7484016  63.4031534   7.6987636  91.1796665
  52.0095491  84.0414333   1.7410418  51.9332600  83.8516140   2.6761252
  52.8417444  83.6449051   1.4832662  45.4563951  66.9014931  28.3797646
  45.5812740  66.4777374  27.5306082  44.6296644  66.5457869  28.7056780
  17.4694943  99.3712616   9.4805020  17.3273599 100.1894188   9.9565780
  16.9982159  99.4890976   8.6557341  30.4453301  78.2627201   9.0844184
  30.9938025  77.8596020   9.7574025  29.5562077  78.2059479   9.4343710
   5.6054449 106.0547352   3.3296308   6.0063988 105.4710960   2.6855510
   4.8435399 106.4202690   2.8800532  20.9086466 101.9649124   1.2879893
  20.3523350 101.8561268   0.5166825  20.3456926 102.3970318   1.9303152
   5.8082795  24.3284559  70.5964231   6.5942580  24.5476913  70.0960159
   5.6016243  23.4306574  70.3366423  41.3217115 102.1380901  10.4465091
  41.1654139 102.6723671  11.2251961  41.7902231 101.3699627  10.7731628
  71.9222021  62.5972223  79.1192293  72.1079731  63.5218143  78.9553499
  72.6354694  62.3067045  79.6876335  72.3387146  15.1730263  90.4405308
  73.0826283  14.5828140  90.3202057  72.7266836  15.9828937  90.7719421
   6.6548473  23.2627058  88.7173462   5.8509827  23.5158801  89.1711426
   7.3386246  23.7916875  89.1282654  99.6369839  29.5427132  83.2061672
  99.2009830  28.8332534  83.6781788  99.2382622  29.5319819  82.3360348
  60.4326963 105.8500004  62.6154232  60.3084517 105.5872726  63.5274410
  61.1634016 106.4677525  62.6415443  28.8107038  44.6640873  64.2879963
  28.9237309  43.9464712  64.9112797  29.1492224  45.4339314  64.7451401
  31.4838004  89.4449615  22.4503756  31.3538575  90.2311707  21.9200730
  31.0300255  88.7534237  21.9686246  22.9355669  94.4149685   5.9737486
  23.2146621  93.9883327   6.7838848  22.2214103  93.8670158   5.6482279
 109.3688583  70.2843618  14.3931103 109.0402412  69.4506168  14.7294319
 108.6190224  70.8768272  14.4475150   0.5974875  72.2439098  90.3260899
   1.4866671  72.4358559  90.0281811   0.5966595  72.4893045  91.2512970
  57.7027225  96.6818142  54.8368692  57.9308319  96.5790844  55.7607985
  57.1920776  95.8996582  54.6278381  64.5921278  98.2365704  17.4510849
  64.9925375  98.5862160  18.2471085  65.3021383  97.7688313  17.0113814
  97.0458221  20.7577777  88.6016464  96.1250687  20.6446362  88.3657742
  97.5045395  20.8002520  87.7625942  84.1293812  51.2103796  87.4288559
  84.5081329  52.0149851  87.7829647  83.6742878  50.8129358  88.1712532
  70.5320787 103.5477638  82.9009628  70.8058834 104.1165066  83.6205387
  70.8168793 102.6730061  83.1653881  41.9398069  78.9767075  15.9590065
  41.1964417  78.3859015  15.8381999  42.3418570  78.6911345  16.7793930
  83.0355549  33.6512995  86.8226814  82.7345467  34.4228673  86.3427734
  83.9897728  33.7267804  86.8232346   6.9314325  96.6187382   4.8539823
   7.7957410  96.5172195   5.2526009   6.3181067  96.5079021   5.5804670
  29.0712881  63.7125492  86.5542412  28.4225035  63.0758190  86.8540478
  29.8718429  63.2012892  86.4361286  39.8132849  92.4568176   5.3960520
  39.1152239  92.0589828   4.8757875  39.3856573  93.1765270   5.8601457
  94.2278290  62.0005941  91.7037201  93.9153194  62.9053354  91.7080784
  94.2838192  61.7709970  90.7761574  27.7119088  34.7644472  18.4226120
  26.9994497  35.2389860  18.8509202  28.1204438  34.2598510  19.1259694
  23.3844471   1.4246273  19.5681989  23.6600184   0.5940654  19.1803086
  24.0863109   1.6480315  20.1795173  43.2088375  77.8985357  23.5863757
  42.4464321  77.3216963  23.5391712  42.8449440  78.7603331  23.7891531
  44.9790621  67.1757841  53.7285376  44.1038752  67.0177984  53.3745432
  45.5389309  67.2558212  52.9562855  99.7123432  66.5878010  86.9471741
 100.3433990  65.9033155  86.7247295  99.5543575  67.0454311  86.1214352
 101.9564819  25.7456064  89.1039181 101.2969398  26.3993096  88.8717175
 102.7576542  26.0524249  88.6794090  61.8973351  55.2987528  88.9507103
  62.0376539  56.1485386  89.3683243  62.2845745  54.6671581  89.5568180
  22.3908710  87.9618645  11.0347366  22.7255082  88.1475735  10.1573753
  21.4711261  87.7351475  10.8972526  80.5365849  18.3725536  87.0012569
  80.2974796  18.2936001  87.9247475  80.7622337  19.2961478  86.8903923
  90.7389927  36.1246586  64.4051647  90.7236767  36.5178013  63.5325623
  89.8302555  35.8736801  64.5707703  37.1905613 103.1131554  21.8299818
  36.7808247 103.2316399  20.9730625  36.7530322 103.7501717  22.3948026
   4.2668957  67.1611929  13.9764750   5.1126939  67.2339010  13.5342407
   3.9985356  68.0669975  14.1305518 109.1269398  31.8901205  76.0309029
 108.8282204  32.7068067  75.6308746 109.1530514  32.0784616  76.9690275
  27.8501940  87.5170517  22.5017881  27.8930497  86.5907669  22.2643352
  28.7270451  87.8528214  22.3157191  23.5831285  67.5865507   8.1622744
  23.7990189  66.6893721   8.4166187  22.8395104  67.8206015   8.7176889
  75.0001097  76.4768744  22.1549416  75.1517200  75.5869484  22.4731779
  75.7921314  76.9563246  22.3979688  47.6879454  27.8627944  85.3190708
  46.8227816  28.1828737  85.5745602  48.2745361  28.6012244  85.4829884
  40.4676533  79.5146990  19.0383422  40.3809690  79.6932411  18.1019449
  41.0987234  78.7966967  19.0878546  52.6637554  18.8200879  79.5111322
  52.5289297  19.5953524  78.9661360  52.1303082  18.9790237  80.2898502
 101.2698078  23.9477062  14.8065269 101.5407085  23.6627221  15.6792426
 100.7011604  24.7009230  14.9663043  85.0991631  14.6180797  88.0734539
  84.5404816  15.3635299  87.8534222  85.5844116  14.4366395  87.2685623
  34.3566217 104.4735191   0.8235726  33.6641683 104.9884508   0.4093346
  34.1212930 104.4581364   1.7512688  20.2047849  48.0090284  70.2807617
  19.5821190  48.6276054  69.8988199  19.7864020  47.1541882  70.1786232
 101.9188976  95.6692410  18.3628666 101.6948605  96.5705013  18.5947573
 101.0877514  95.2771473  18.0950999  87.5487137 103.3615208  83.9152908
  88.0337143 102.7963829  84.5166492  86.7656517 102.8581142  83.6925220
 100.7446861  35.6916881  64.9455833 101.4956284  36.1454844  65.3281927
 100.9441566  34.7621942  65.0573254  75.4908800  11.5478313  15.8330631
  76.2787199  11.3598597  16.3431680  75.3452635  12.4860954  15.9542656
  11.0677779  78.0292797  25.3436327  11.1238980  78.8579607  25.8194160
  11.3210225  78.2500744  24.4473362 110.9157848  56.4194489   3.4474981
 110.4775620  56.3868475   4.2978686 111.5855885  55.7374239   3.4969237
  10.9900558  15.6336021  61.9988775  10.7060444  15.9087014  62.8705978
  11.8732083  15.2893817  62.1322489  37.6666784  90.8042812  19.4355619
  37.6268888  91.5906334  19.9798930  37.4885321  90.0846100  20.0410128
  97.1196556  20.8615732  58.1956148  96.2451649  20.6453490  58.5192728
  97.3041630  20.1910901  57.5378609  87.8857231  50.9039402  63.0823755
  88.8184738  50.7578516  63.2400894  87.6812553  51.6990566  63.5745287
   7.1282309  41.3627338  77.6766777   7.3975122  41.3468361  78.5950804
   6.8886328  42.2749090  77.5130892 106.9827652  78.9555931  77.3183250
 106.2489986  78.3414507  77.2929192 106.9792366  79.3688297  76.4549255
 103.6359978  85.6194782  15.4240131 102.9234314  86.0778999  14.9786723
 103.4481049  85.7324696  16.3557649  78.6238527  79.9376869   1.7568645
  78.1795883  79.6860981   0.9471966  78.3217859  80.8295918   1.9286178
  97.2965622  12.5837278  72.8564978  96.6232204  12.1557975  73.3853769
  98.0884933  12.5351477  73.3919621  36.1560893  61.2425613  15.7227457
  36.7842555  60.9400845  16.3785994  36.6478491  61.2411356  14.9015260
 107.4887466  21.1375618  61.1583138 107.8204155  21.9632816  61.5110493
 106.5867233  21.3312054  60.9032011   5.3786385  31.9234300  87.7286911
   5.5354679  32.4343443  86.9345856   4.6285439  31.3693762  87.5127888
  41.7006969   2.6718381  39.2612672  41.2817335   3.4619993  38.9201736
  42.2494221   2.9833567  39.9810553  40.3745413  81.9569874   9.2079830
  39.7634888  81.4239502   9.7166204  40.0532961  81.8968678   8.3083069
  98.2949066  29.8075032  80.7094669  98.6241055  29.7440600  79.8128939
  97.3607540  29.9906206  80.6092167  27.9765630  36.5558052  90.1940060
  27.8299594  37.2414446  90.8456516  27.2016907  36.5889192  89.6330166
 103.0427074  45.4403019  75.2505016 103.7218094  44.7848368  75.0910711
 102.2202015  44.9570942  75.1715755  76.5447140   2.7592149  84.1834259
  76.7344332   2.5435469  83.2703400  76.4049149   1.9116265  84.6056652
  53.9796782  88.3775520  22.0637536  54.1174555  88.4071350  21.1169839
  54.7559929  87.9335690  22.4049997  92.7019024  55.1231098  77.4195480
  92.1529579  54.9294043  76.6596937  92.7144527  56.0789728  77.4685192
  63.6984777  75.4639530   6.5823662  64.5549679  75.0806284   6.3933736
  63.7709665  75.7799625   7.4829870  18.5036016  74.4479847  38.6635637
  18.4572208  74.2797756  39.6047258  19.4114411  74.2542219  38.4300780
  91.6078472  28.1658888  86.3640499  92.2604752  28.8599539  86.2714195
  91.2424374  28.0619168  85.4854679  43.8094330  50.7733774  66.1498976
  43.5760212  51.5608740  65.6583691  43.0547094  50.1938343  66.0461998
  22.3810577  79.5985985  11.4734507  23.2918763  79.7799873  11.2416315
  21.9494677  80.4520893  11.4345121  65.4130077  30.4872036  25.4013729
  66.2839127  30.8587193  25.5418396  65.2690744  30.5641294  24.4581866
  83.5987568   2.9326549  21.8813300  83.4134007   2.0296881  21.6234064
  83.0592918   3.0751294  22.6590919   5.1919943   6.2964195  56.0033083
   5.4613948   6.9972897  55.4096460   5.7929063   6.3666308  56.7450666
  22.2095227  57.4606848  73.7395859  22.9666901  57.8051376  74.2131710
  22.0434213  58.1055737  73.0520105 102.4553108  14.0100157  90.7185745
 102.7691555  14.4461417  89.9264145 103.2211781  13.5450089  91.0554028
  53.2391310   0.7454862   6.5623575  54.0300465   0.8652707   7.0880330
  53.4047747  -0.0513919   6.0585922  29.5216179  27.7705503  71.2727213
  28.8621330  27.8302169  70.5815268  29.3570614  26.9241428  71.6883516
  27.7559638  84.3747711  90.9089947  27.1287084  85.0978088  90.9098530
  28.1389976  84.3889332  91.7860985  48.3239460  38.2566023  90.1423645
  47.7318430  38.8786268  89.7196007  47.7509832  37.5591183  90.4608917
  95.5113316  57.1285057  71.3922262  95.5958939  58.0661392  71.2192488
  96.4095879  56.8287659  71.5319586  55.1487780  79.9996138  12.9545581
  55.2136564  80.8721733  12.5663972  54.4638920  79.5626211  12.4483931
 106.2001419  40.3348351  89.7121334 106.1662960  40.2042246  90.6597710
 107.0919132  40.6393147  89.5440197  30.8986664  99.4907379  23.4690833
  31.5070415  98.7517548  23.4713483  31.4582753 100.2613831  23.3732653
  93.6839867  32.0649981  13.2282150  92.9396820  31.6250157  13.6388850
  93.9814568  32.6952624  13.8843489  84.5450401  77.5185871  28.9676452
  83.9551544  78.2566214  29.1211820  85.4223251  77.8888893  29.0649700
  81.5728760   6.2123579   6.7024976  82.4530411   6.5494561   6.8695509
  81.7108822   5.3026342   6.4387041  76.6603088  32.7553582  66.8981981
  77.2795582  33.2788539  67.4068356  75.9643078  33.3690357  66.6632175
  27.3462343  97.1481609  41.8772316  27.8251338  96.4012718  42.2364712
  27.1037078  97.6681328  42.6434135 101.3635349  42.8283739  87.3503685
 101.9828987  43.4868336  87.0356464 100.7338810  43.3231115  87.8747654
   7.1053946  41.9807863  67.2802544   7.4337888  41.4045954  66.5900421
   6.2575102  41.6073227  67.5207710  57.3519135  72.5746727  17.2924042
  57.5036526  72.9597759  16.4293277  56.3997698  72.5746584  17.3906326
  73.1020649   0.3141660   9.0638572  73.4562619   0.2739591   9.9522036
  72.3907049  -0.3262835   9.0604234 103.0315495  65.2877665  66.8281126
 102.8583336  65.8235168  66.0540295 103.9635181  65.4162073  67.0046377
  29.1152263  24.0108418  69.0086842  29.2724133  24.5410514  68.2274055
  28.3295608  23.5051107  68.8008499   2.3529822  42.5474310  74.3327141
   2.7737176  43.3843708  74.5295429   2.9200494  41.8926382  74.7400427
  66.0777903 102.0866108  13.1438506  66.1088562 102.2884369  12.2086847
  65.8155107 102.9088783  13.5577512  72.5457907  78.2280159   1.3342264
  73.4309959  78.5917664   1.3522892  72.6521111  77.3242664   1.6311531
  29.2318702  79.2398596  30.1446891  28.9423537  78.8739395  30.9804606
  30.0118566  78.7331247  29.9187064   3.1081018  85.7239151   2.2938931
   2.6040316  86.2997341   1.7189300   3.5223362  86.3155937   2.9220301
  32.9092360  30.9275556  13.8975418  32.0199537  31.2429261  13.7364411
  33.1411290  30.4481769  13.1021476  55.9114742  18.6133027   4.5655188
  55.5716991  18.6088157   5.4603726  56.7723179  19.0254843   4.6382487
  74.1833687  17.4589515   6.2960047  73.4037018  18.0074215   6.3828063
  74.9155855  18.0728531   6.3526738  23.9704347 103.7217426  19.3544257
  24.3799210 103.7404060  20.2194142  23.6805916 102.8159332  19.2461360
  94.6928596  -0.2584144   7.1522844  94.2772198   0.5079442   7.5474662
  94.9925900   0.0465876   6.2959158  14.8378634  67.7462292  15.1545048
  14.2835093  68.2411766  15.7577872  14.7374463  66.8349934  15.4298103
  56.0072899  11.3700628  32.0256543  56.5886307  12.0107138  31.6159678
  56.5525436  10.9377778  32.6829672  52.0428562  30.8352542  20.2666044
  52.9565573  30.6972575  20.5162978  52.0119143  30.6095266  19.3369174
  51.8594503  92.0157814  10.3525794  51.9137621  92.4223423  11.2174428
  52.4766397  91.2852001  10.3921711  64.3797541  66.1305571  72.8880501
  65.0118160  66.8028641  72.6336288  63.7140799  66.1552525  72.2006655
   4.7132668  42.1084929  27.5106859   5.5918646  42.0856762  27.1315074
   4.2947787  42.8651428  27.1000981  63.3109283   6.4418191  78.6244011
  63.0676699   5.5731261  78.3043575  62.9541731   7.0456368  77.9729748
   6.9228035  20.1475477  36.5731144   6.4352775  20.3225446  35.7681751
   7.0835400  21.0131574  36.9487667  95.7971382  46.4958048  74.8583221
  94.9093056  46.8070602  74.6819401  96.2547493  46.5911913  74.0230227
  76.7434454  19.4911921  22.6495600  76.6968250  18.7358201  23.2356238
  77.6801634  19.6241045  22.5042009  40.1796484  87.4881649  21.2881374
  40.6903410  87.9736805  21.9359779  40.1018095  88.0878830  20.5461693
 103.6386871  66.4161158  90.6400394 103.6556721  66.5449572  91.5883732
 104.2362690  65.6841946  90.4870319  86.7263794  42.1341324  85.2224445
  87.2114754  42.9194546  85.4757881  86.5253830  42.2652864  84.2958164
  89.9548149  49.6136093  22.9888010  89.6604633  49.9309969  22.1350718
  89.4522667  50.1268864  23.6214304  28.8065553  98.3567524  32.5658011
  29.0932679  97.6136303  32.0349622  28.7797332  98.0161858  33.4599638
  23.9678907  90.9900188   4.0511391  24.2033243  91.8984985   3.8628319
  24.7813272  90.5908012   4.3596509  88.9558315  27.1809721  27.4797893
  89.3403912  27.9637337  27.0852876  89.6276760  26.5067863  27.3781347
  42.6467888 105.6332301   1.7136939  42.8410046 106.2701574   1.0260613
  41.9072049 106.0118796   2.1889457 112.3546505   8.9644831   5.2355146
 111.5313816   8.7853330   4.7812468 112.7764797   9.6428722   4.7081792
 104.1075993  62.3254776  89.1314793 104.6318340  63.1254292  89.0930367
 103.2509708  62.6153374  89.4451618  99.1085052  73.3124113   5.2481467
  98.2851124  72.8286457   5.3131509  99.5261478  72.9693270   4.4581437
 109.8592758  52.4835300  24.1761303 110.4741669  53.0629635  23.7262464
 110.3408241  51.6639233  24.2882848  71.4637280 101.4657402  72.4790001
  71.9575882 100.7649803  72.0532370  71.8621922 102.2723293  72.1521044
   0.9666232  13.2249033  70.2739239   1.4551055  12.7213144  69.6227598
   1.6357107  13.5508752  70.8758354   4.9682403  36.3245416  53.1504822
   4.5786023  35.4534459  53.2253504   5.4521418  36.3003278  52.3249578
  90.3629494  93.8750076   8.9991558  91.1825085  93.9626026   8.5124469
  90.5379009  94.2963886   9.8406243  73.8859272   3.3686927  54.0924406
  73.8370609   2.4283732  54.2646122  73.0190229   3.5959935  53.7562227
  68.0959320  84.8666286  91.2657356  68.5549593  85.6644917  91.5283203
  68.2585287  84.7953033  90.3251457   4.9188322  17.4805784  71.8127632
   5.1922905  18.3779311  71.6224670   5.6486475  16.9389772  71.5123129
  52.9343033  51.6117382  22.3965669  53.2816267  52.0104742  21.5986872
  52.5600386  50.7802343  22.1054482  58.9959288  66.7086697  15.0367486
  59.1948271  66.7206669  14.1005182  58.5013628  67.5143337  15.1868844
   0.2965814  66.2140656   2.4518184  -0.2247828  65.9973717   1.6788685
  -0.0620287  65.6605053   3.1455031  54.7669363  97.5201607  70.1228189
  54.7804689  98.2132626  69.4627762  54.4051027  96.7610455  69.6656084
 104.8477459  28.4592080  71.6342974 105.1003838  29.1268802  70.9966326
 104.6530533  28.9512777  72.4319124 109.7385311   8.2330388  23.0162549
 110.1313877   7.8811562  22.2174549 108.9745235   7.6778460  23.1720924
  61.3355160  84.8191452  56.6373062  60.9398985  84.7741604  57.5077629
  61.4027119  85.7559967  56.4528751  36.0006070  53.5620785  24.2140603
  36.1173844  53.9783192  25.0680733  35.4423141  54.1678905  23.7266827
   2.4506783  55.4025078  29.4402194   1.9290361  54.9093246  30.0733805
   2.5394055  56.2726736  29.8290229  49.3601513  61.5806293   7.0075315
  49.6330261  62.0039606   7.8215122  49.2563152  62.3011255   6.3859749
  60.1432896  92.7766037  30.5841827  59.5469189  93.4773636  30.8478165
  60.5988503  93.1253815  29.8179936  53.9543533  89.7724628  84.7093582
  53.9642668  89.7628117  85.6664562  54.2830420  90.6404209  84.4751740
  76.8111658 104.9120522  84.3467999  76.2029791 104.9029541  85.0858974
  76.6445351 105.7471943  83.9097691  60.6052780  96.5158653  80.7791996
  60.3104210  96.8918705  79.9497938  60.7560539  95.5912399  80.5828381
  98.8348866   9.1623837  80.5331326  98.7425423   8.5507411  81.2636089
  99.6315193   8.8802004  80.0837135  30.6615019  70.7447767  16.7986560
  30.1091719  70.5895376  16.0324550  30.1749444  70.3585196  17.5268734
  68.3449745 104.8042488  87.1599674  69.2128277 104.7602558  87.5613689
  67.7420092 104.5758629  87.8674412   4.8823324  39.4711185  80.5305004
   4.3155107  38.6998510  80.5210209   4.3276221  40.1800394  80.2049732
  74.1358232  85.0603962   4.0265721  74.4248247  85.8964062   4.3923503
  73.6341667  84.6511173   4.7315979  10.5935216  57.0085001  73.5828209
  11.3493359  56.5973711  74.0022850  10.9349740  57.3511219  72.7568388
  89.1718864   0.1742019  72.0939827  89.6016216   1.0236890  72.1936226
  89.8117924  -0.3648606  71.6290474   6.1292839  44.5137930  45.6483221
   5.8255625  45.2654886  45.1394653   6.5355229  44.8986483  46.4249134
  67.3654699  16.7556715  62.6638842  67.9072571  17.4576354  62.3034096
  67.7381802  15.9535182  62.2980022 112.2488976   2.5391307  81.6769028
 112.6435566   3.3798885  81.9084167 111.3784981   2.7653047  81.3490391
   8.4033763  92.7968407  17.7578199   8.3202338  92.2388458  16.9845378
   7.5041217  93.0458069  17.9713333  47.8880835  80.5215168  13.7396896
  48.6413383  79.9320650  13.7025607  47.1308279  79.9390316  13.7989712
  71.0754871  38.4750986  83.3467102  70.4172039  39.1073465  83.6350822
  71.1367798  38.6077666  82.4007320 109.1486359  12.1450293  64.7895050
 109.8329449  12.3992395  64.1703653 109.3444157  12.6454556  65.5816412
  36.3768458  74.3970871   7.5254869  36.9903779  74.9955654   7.0992982
  35.5310941  74.8419762   7.4706310 106.7397118  50.9321499  66.9010162
 107.4583817  51.4639616  66.5590954 107.1111965  50.4897261  67.6642227
  98.2057667   5.8288795  59.4668913  98.6731815   6.3400054  58.8062000
  98.3771610   4.9174249  59.2300224   4.2133522  75.8502197  16.5303695
   4.7914779  75.8579588  17.2932208   4.3962601  75.0151777  16.0996950
 110.6208420  51.9215918  14.2680943 110.6977081  52.2099972  15.1775706
 111.4806557  51.5565205  14.0591073  70.2463579  79.3269539  76.9036007
  69.9627924  78.4933662  77.2790432  70.5785704  79.8252773  77.6502895
  93.6953831  25.8684587  83.8135338  94.5770836  26.2325478  83.8927555
  93.3621502  26.2249184  82.9900551 110.5087471   9.4033992  89.8713207
 111.1524200   9.6456814  90.5370712 110.3324699   8.4768462  90.0345898
 104.8754406  31.5106297  90.1344681 104.7514629  32.0124006  89.3288136
 104.0156269  31.1304736  90.3145790  84.9847794 101.1313152  53.2707787
  85.6595802 100.7801533  52.6897764  84.9123955 102.0533276  53.0240297
  23.2581544  77.9477167  86.6491699  24.0249157  78.5204029  86.6676044
  22.8398871  78.1344700  85.8086872  71.6335964   4.0627351  51.7377663
  71.8075800   5.0034755  51.7066288  71.2981033   3.9103195  52.6211929
  51.8806696  99.2066383  77.7846193  50.9898233  99.2528057  78.1317425
  51.9233084  98.3565903  77.3466349  90.8193588   5.3309709  56.8271399
  90.1161861   5.8829129  56.4848900  90.4678917   4.4416368  56.7849112
  81.4043427  90.2836990  77.3822308  81.9156075  89.9723244  76.6353226
  81.2724781  89.5052719  77.9234314 103.6279869  48.2330132  74.5706701
 103.6021709  47.3007679  74.7862768 103.1795502  48.2963228  73.7273836
   3.2003692  37.3287606  49.7517681   4.1069087  37.4557662  49.4719696
   2.9166192  38.1946826  50.0448513  85.1009178  16.8400908  63.2813120
  84.5806313  17.3594403  63.8943434  84.6087265  16.0254264  63.1797791
  59.1213894  52.7151680   0.7945747  59.4330502  51.8481016   0.5351586
  59.0884876  53.2122898  -0.0227523   8.2503438  52.5685883  22.9379082
   8.1672698  52.5954199  21.9846964   7.4011791  52.2495317  23.2434487
   0.8200818  11.7358339  89.8031330   1.6423810  11.8153477  90.2865887
   0.7774074  12.5302458  89.2708492  10.3281057   4.1953132  80.5841351
  10.3113556   4.9036288  81.2277508  11.1826658   4.2766571  80.1606464
  23.6710787  67.8088093   5.2422416  23.7378049  67.6077223   6.1756986
  22.8079152  68.2109547   5.1449704  10.1559722  38.8767147  91.2160683
  10.2180779  38.4438539  92.0675373  10.9358203  39.4299364  91.1711693
  86.6432381  47.6951122  57.3426008  86.4777660  47.8002071  58.2795143
  85.8702564  47.2369099  57.0127773  39.4761491   3.0962738  73.9974880
  39.5054579   2.1395563  74.0054941  40.1949406   3.3627242  74.5707035
  56.1863613   1.7404415  80.5990601  56.6838789   0.9272781  80.5126381
  56.1059284   2.0683643  79.7033882  17.4332905  28.3838129  80.2748489
  17.7019799  27.5605631  80.6826496  16.8359935  28.7812352  80.9085083
 100.9758949  56.7489100  80.1332569 100.9754181  55.8049631  80.2919865
 100.2590275  56.8880796  79.5144081  36.8604231  40.8696938  86.0922337
  36.0210800  41.2694407  85.8643341  36.7312217  40.5296659  86.9776344
   4.2365137  71.3508606  11.5881431   3.9669010  70.8858442  10.7961190
   3.4309980  71.4448833  12.0966077   4.4555551  51.1937857  76.2499189
   4.0986222  50.3057909  76.2670565   4.8683465  51.2694407  75.3896236
  91.7016792  51.1401796  74.9147701  92.4920177  50.9380198  74.4140387
  91.5402031  52.0679283  74.7431946  90.7096672  43.7930870  60.2373075
  91.0220814  42.9014635  60.0835609  89.7848415  43.6876678  60.4605293
  98.5209084  60.4106140  74.8356104  97.9687500  60.4679966  75.6153917
  98.3055019  61.1951876  74.3313456  55.8388948  82.9322243  22.7153635
  54.8875761  82.9751682  22.6184964  56.0990286  83.8292027  22.9251003
  13.9782810  14.3271911  89.7469330  13.5777950  14.6714485  88.9486122
  14.0572774  15.0879097  90.3225231  81.0669708  96.2518501  40.8190012
  80.7191944  97.0297813  41.2550068  80.9614086  95.5499935  41.4612532
  15.2404225  91.2218952  31.9515252  15.5062771  91.2828636  32.8690410
  15.9412599  91.6607857  31.4694166   8.6623269  25.1094556  62.9408693
   9.0795326  24.4846940  62.3477077   8.7792778  24.7283053  63.8110876
  75.7385492   3.2996464   1.7364721  75.3740788   4.1467598   1.4799745
  75.0112820   2.8446761   2.1611068   6.3008690  27.7880669  63.3394194
   6.9956172  28.4436178  63.2776880   6.7640072  26.9513750  63.3804226
 102.8845119  27.5980210  81.6294003 102.7691650  28.5263872  81.8320370
 102.0695591  27.1869063  81.9176102 107.8783035  62.1068811  88.7423706
 107.6875591  61.6894960  89.5823956 108.4190369  61.4696932  88.2756424
 110.8915043  56.0698080  69.2662859 111.5153694  56.2441301  69.9710178
 110.0889683  56.5127802  69.5418358 103.1433392  17.5622571  53.0586576
 102.7492332  17.3624980  52.2095346 102.4174976  17.8931689  53.5876942
  96.6691494  69.4988632  13.1991947  97.2887230  69.5397282  12.4707091
  97.2202873  69.4304323  13.9788067 103.3683872  16.5124130  85.3796291
 102.8052235  17.1923614  85.0098419 104.2524910  16.8741250  85.3182602
  86.8590069  12.7088773  65.0620747  86.7621136  13.6429834  65.2472544
  86.0510921  12.4696851  64.6078825  19.4341433  13.0624747  58.8808155
  18.5431099  12.8222060  58.6267233  19.3731403  13.2529652  59.8168850
 109.3136501  38.4593725  79.7780085 109.2035484  39.1793299  80.3991127
 110.0942230  38.6934829  79.2758942  15.2375627  67.0960760  63.8572311
  15.5207443  66.2425280  63.5293579  15.9739053  67.4065733  64.3841267
  62.2292995  55.2235889  17.2277761  61.5938902  55.9018564  16.9987881
  62.8616333  55.2353859  16.5092742  74.9263144 105.9957600  45.8033562
  75.5126572 105.9954453  46.5599489  74.4530964 105.1661301  45.8667231
 102.0237255  15.3028750  64.9085093 102.6735306  15.9609461  65.1553345
 101.4608669  15.7479072  64.2749739  33.8617659  39.3852139  75.1292753
  34.0944648  39.6281981  76.0254002  33.5315490  40.1947832  74.7396755
 104.3634224  42.8375340  74.4106197 103.8745022  42.1295452  73.9911795
 104.2955112  42.6532459  75.3474522  54.3823957  98.1027222  62.6233101
  53.5163450  97.7175903  62.4896479  54.6068048  97.8798294  63.5267401
  56.1332178  86.3270664  13.4581697  55.8215284  87.2106647  13.2623553
  55.3472996  85.7819748  13.4202898   7.8906816  11.7021096  71.3500547
   8.4924114  12.4264455  71.5217829   7.6182109  11.8274570  70.4410553
  57.7249622  15.2359247  69.9502993  58.4476662  14.7464550  70.3431702
  58.0838013  15.5763674  69.1308069  92.2410202 101.0526466  89.7804165
  91.3911057 101.4356232  89.5631695  92.7360439 101.7734623  90.1697826
 104.0825176  74.0410709  81.2036705 104.5677948  74.2295170  82.0069313
 104.6353817  74.3871021  80.5030727  94.9083042  32.6145577  60.3871059
  95.7673645  33.0272269  60.2978611  95.0605392  31.6949916  60.1692677
 101.3348103  49.5927000  46.4050722 101.1050701  48.9916611  45.6964064
 101.8756104  49.0696764  46.9968557  87.1564674  37.2912717  80.3535557
  86.2400055  37.3920631  80.0963116  87.5752068  38.1045294  80.0716019
   6.7745793  53.0760813  77.7268267   7.3975211  53.7953901  77.6230526
   7.1132219  52.3824263  77.1607924  80.4841709   9.6982181  69.0334845
  80.7699680  10.4381108  69.5693111  80.1527882   9.0593421  69.6645594
  11.1535072 103.9101219   7.9379368  12.0010579 104.2055702   7.6053727
  10.9271634 104.5466995   8.6160028  70.1476669   4.8571965  81.6268253
  69.9214411   5.6722486  82.0748711  69.8127270   4.1677675  82.2001839
  77.2649384  30.3524685  69.9081612  77.4880505  31.0216236  70.5552149
  76.3581467  30.5437899  69.6686697  95.5631733  47.0349789  69.1827726
  95.6433105  46.2560797  68.6322117  96.4608765  47.3523903  69.2808008
  99.6021461   3.9337054  26.0173011 100.1727962   3.6813354  25.2914190
 100.1852417   3.9815837  26.7748880  19.6544909  70.4199076  77.1028948
  19.5640051  69.7022295  76.4760113  18.9656365  70.2622414  77.7485371
  92.1811104  12.9468405  51.0618877  91.8555260  13.8453555  51.0080814
  92.1049213  12.7195716  51.9885921  10.4279268  54.8207521  80.2244091
  10.4884827  55.0167179  81.1593819  10.8741045  55.5518675  79.7970676
  73.8147163   6.9719785  72.4949598  73.1206703   7.4510276  72.9477835
  74.5832729   7.5378555  72.5679874  90.9551048  79.1194344  28.8191533
  91.7084122  78.7363482  28.3696985  90.8180046  79.9602699  28.3827686
  69.1416645  95.8673286  11.4819860  69.4624329  95.1878548  12.0749927
  68.3491945  96.1990356  11.9041133 105.8156967  84.4468307  37.2205305
 106.3239479  85.1274395  36.7793059 106.4511871  83.7553406  37.4055290
  98.6962032  93.2051659   2.4313298  99.2652798  93.8003922   2.9192767
  97.8417969  93.2900238   2.8544343 101.3648415   4.0122941  13.0288529
 101.9820881   4.7146073  13.2337940 100.5398560   4.2959747  13.4227419
  46.7479229   9.8562449   1.9000991  47.0591402  10.7091057   2.2034237
  47.3394489   9.6264410   1.1834985  78.2522392  88.0547142  17.7117443
  78.1146717  87.3661709  17.0611966  78.7454987  87.6274776  18.4120321
  35.2962732  27.1786427  15.5190945  35.1505351  26.2430263  15.6591463
  34.4596934  27.5872588  15.7413471  88.5170841  80.9411812   0.6797595
  87.6433659  80.5679798   0.7962093  89.1128635  80.2065659   0.8268191
  45.7530260  15.2579033  33.0043888  45.5516434  15.4856861  33.9120197
  45.3541231  14.3968081  32.8793931  69.9450397  94.6238708  21.4897156
  69.3119907  95.2122021  21.0781908  70.7205915  94.6780968  20.9313154
  72.2292376  68.7254381  79.0982103  71.7010212  67.9576254  78.8798571
  72.0037270  69.3699408  78.4273911  34.6218204   7.7433765  86.1776924
  34.3621230   8.2710749  85.4224968  35.5437827   7.9604369  86.3158989
  88.2688332 104.8607159  12.8511727  89.0825844 105.2009964  12.4793351
  88.5486221 104.3423557  13.6056590   3.1602210  30.4478431  13.6490762
   2.6531515  29.6653461  13.8654304   3.4895211  30.7604289  14.4917417
  34.7860360  14.0904069  36.2150764  34.6029329  13.2113564  35.8834505
  35.1029515  13.9486790  37.1071005  26.5886688   6.3791776  29.1531086
  26.1981082   6.5763825  28.3017540  26.8642354   7.2304440  29.4931650
 101.0416698  97.9922771  18.6609864 100.6292820  98.0764580  17.8012848
 100.9555244  98.8607979  19.0540314  19.3962932  34.7772169   8.1170964
  18.7407076  35.3889585   8.4520757  19.7541535  34.3575621   8.8994372
  74.4060802  79.7803879  39.0260005  75.3367901  79.9239445  39.1974592
  73.9575243  80.3831291  39.6190691  -0.3258068  27.2169781  42.9678202
   0.0076026  26.4774013  42.4597883   0.4168613  27.8173971  43.0324173
  73.3584101  87.6485107   0.1038345  73.3569749  86.8337701   0.6062588
  72.8493793  87.4466560  -0.6812588  38.9272114 103.0414756  91.8951669
  37.9732755 103.0064805  91.9659709  39.0905764 103.5962136  91.1324033
  34.3918991  33.2596278  80.5790806  34.2113686  32.9544044  79.6899891
  34.3348718  32.4713802  81.1191273  40.6150389  99.0160942  39.9009418
  40.4867077  98.3384705  40.5647087  39.7291684  99.2935181  39.6674895
   4.6448067   8.2449657  33.2323480   4.1802925   8.7328154  33.9123940
   5.3043580   7.7400011  33.7079883  24.3872452  18.1835222  17.8692210
  24.8104239  17.7490973  18.6097789  23.5087824  18.3945775  18.1854320
  28.7964058  27.1842527  23.9702129  29.0847182  27.9117537  23.4189868
  29.2849684  26.4284539  23.6441660  77.7564096  78.5010433  51.9899178
  78.5508013  78.8414621  51.5784740  77.4737501  79.1999912  52.5796747
 105.8297825  76.2093306  49.7819567 105.3369141  75.8859253  50.5360937
 106.5194035  75.5588245  49.6496820  73.1352282  92.9244900   2.8655198
  74.0131426  92.5481987   2.8030396  73.2733822  93.7934875   3.2423356
  55.3659153  67.3243189  84.4661427  55.9258223  66.5497065  84.4140816
  55.5564690  67.8118801  83.6647606  85.2985477  84.4282150  46.9933653
  85.5934048  84.9788570  47.7186918  85.7165718  83.5815144  47.1501398
  35.6304526   8.6357784  47.5053215  35.0945902   7.9034513  47.2007179
  35.8809566   8.3946013  48.3971214   7.5817853  35.2238536  37.7374816
   7.0344722  34.4484377  37.6133347   7.6108789  35.6371307  36.8745875
  49.7479200  95.0622749  40.9244347  50.0842857  94.2282200  41.2522030
  49.1202259  94.8168945  40.2447176 108.6755848   9.7387481  35.3887796
 109.2343044   9.1565162  35.9036255 108.9565945  10.6199908  35.6351089
  30.4835558   8.9923131  48.1441164  30.4079676   8.2860023  48.7857103
  29.7443223   9.5695937  48.3352041 105.2543736   7.2800457   9.7612107
 104.6329021   6.6498619  10.1257205 105.0140190   7.3463327   8.8370538
  89.4498539 101.8373775  30.2447581  88.5654163 101.5102100  30.0805473
  90.0248909 101.1813164  29.8508811 106.2220669 105.6158066  22.4401402
 107.1418190 105.6531811  22.1776724 105.8672428 106.4694214  22.1918058
   6.8558842  28.3347726  22.7149296   6.0983151  28.9045691  22.5820684
   6.4897394  27.4506307  22.7364564 103.1671906  95.3612423  39.9098945
 102.8868866  95.3859615  38.9949870 102.5485325  95.9321785  40.3654385
   9.3927354  34.6469927  16.8490982   9.8725396  33.8875103  17.1795571
   8.5474664  34.6096182  17.2967088 111.4360046  88.8983822  49.0715265
 111.9648838  89.0914440  48.2974195 111.4787006  87.9461861  49.1593885
  25.3518105  10.9732890  32.8882718  25.2861500  11.7379379  33.4603143
  24.4813704  10.8900344  32.4988699  97.0219517 102.2066498  12.6821411
  97.4499416 102.8307533  13.2682669  96.1659050 102.5953102  12.5022483
  85.6378078  65.6999445  40.4112911  85.4952240  66.0814285  39.5450497
  85.9120750  66.4378738  40.9557819  28.9056945  17.9038680  17.7871275
  28.1211424  17.9994917  18.3270955  29.5514345  18.4779000  18.1991220
  44.3979549  34.0695953  43.6227655  44.7766924  34.1178322  44.5005274
  44.7365808  33.2508755  43.2604647  59.4360971 103.9574814  69.5713711
  58.8013697 104.3355656  68.9627600  58.9355898 103.7993526  70.3718185
  97.5154972   5.4871100   3.8596776  97.8590870   6.0048997   3.1316143
  98.2142544   5.5003470   4.5137370   6.0439849   3.6415288  46.8819571
   5.4857916   4.4055274  46.7371845   5.8839542   3.0807018  46.1229467
 107.7988243   1.0478780  20.7205200 107.3094940   0.3924135  21.2176681
 107.1358776   1.6773270  20.4367447  36.0489607  18.2459223  30.5946255
  36.1207032  19.1585374  30.8743000  35.1085758  18.1003726  30.4910660
  16.9232714   3.7896982  45.4992199  16.0535061   3.7240520  45.1049757
  16.8416953   4.4927603  46.1436415  69.7028208  24.9805379  12.0893896
  69.2715025  25.4501653  12.8032851  68.9848948  24.5876479  11.5929544
   6.5492821  59.0181112  25.2149177   6.5808952  59.6761847  24.5205355
   7.3168766  58.4679985  25.0586796  68.7887239  52.5181913  84.6638203
  68.2469606  52.0049620  85.2632523  68.6119747  53.4285307  84.9010468
  84.8537922  18.1692016  24.7401500  85.2683926  19.0319479  24.7423863
  85.0520134  17.8059757  25.6032896  22.4449611   0.8075381  33.5731673
  23.1628585   1.4005719  33.7948942  22.4260712   0.1752246  34.2915368
  14.4690466   3.0715382  44.2188978  15.0175893   2.7285191  43.5134411
  14.0942860   2.2930963  44.6309853  76.2912464  89.1890144  63.1684971
  75.9699774  88.9947224  62.2880030  75.5865002  88.9022350  63.7492943
  54.2756891  97.2000885  44.8822451  53.5624456  97.5754261  44.3658829
  54.1861486  97.6055908  45.7446766  92.9583836  85.7085419  35.6565619
  92.5440693  86.1656380  36.3884401  92.8898144  84.7812080  35.8836603
  29.1132832  18.5620666  33.6445737  29.4125962  17.6899230  33.9014983
  28.1885266  18.4436762  33.4276867  97.8370667  70.3969955  39.1260457
  98.0924129  69.9185038  38.3373260  98.6553860  70.7671165  39.4571018
  13.8018835   8.3285230  41.8182993  14.0812838   9.1681230  42.1833181
  13.3148909   7.9091311  42.5276518  70.2280426  70.3898859  50.0314379
  69.9766302  70.9049273  50.7980919  70.0825644  70.9774685  49.2899466
  32.5621939  12.4943483   8.0626130  32.6639724  13.4297490   8.2383865
  33.4459329  12.1925914   7.8524274  27.5272632   7.3001516  34.4568157
  27.5839114   8.1087464  34.9659300  27.4595165   7.5934672  33.5481858
  59.6035290 105.0296497  25.3386116  60.5528355 105.1515865  25.3520417
  59.2698526 105.6790733  25.9575987 110.7762909  87.2375393  22.4949408
 110.0152111  86.7605305  22.8257775 110.4077911  87.9036236  21.9146204
   3.2186654  15.2994275  17.9923546   2.7860749  15.3566110  18.8443089
   3.6640516  16.1408412  17.8929293  43.6617947  79.2790985  91.4240932
  42.8069019  79.7054005  91.4845943  44.2922115  79.9856710  91.5639400
   0.3905660  98.7672424  24.8905659   1.1376554  98.1971264  24.7087455
  -0.0965994  98.7936115  24.0670347  40.4522133  29.7939849  30.4717326
  40.7605886  29.1488624  31.1080933  40.7880592  30.6296635  30.7959008
  29.3441892  12.8959131  36.2211633  29.8106480  12.8816438  35.3854346
  28.4526110  13.1593990  35.9933591  29.3274927  56.3585663  21.0224319
  29.4479609  56.3001442  21.9702220  29.3785381  57.2951984  20.8317876
  10.7502127   1.9793785  17.5970328  10.5316508   1.1096816  17.9318297
  10.3169620   2.0237355  16.7446482  55.0142336  15.4526246  34.6478248
  54.1078234  15.2488744  34.4173098  54.9547815  16.2541211  35.1677275
  43.0986881  28.8787651   6.4389169  42.7380037  28.9883709   5.5590719
  43.5579729  28.0395699   6.4066666  -0.2410432   4.6322528  41.1111736
   0.5880380   5.1106060  41.1052752  -0.1650327   4.0122974  40.3858376
  21.4163160  14.5322537  28.6618447  21.5266705  14.7646034  27.7398539
  22.2902584  14.2668319  28.9482188  86.6472054 103.1160069  42.8541279
  87.4307442 102.6093864  43.0677223  86.0915089 102.5050735  42.3701954
  22.2975945 104.5533752  28.1456161  21.6854477 103.9490700  27.7257037
  23.0036116 104.6604919  27.5081992  47.1239614  19.6274900  69.6229458
  46.4506388  19.2996287  69.0268135  47.5727177  20.3107166  69.1249037
  76.8292618  83.7326145  17.5057328  76.3251448  84.3886662  17.0243907
  76.9612265  83.0231571  16.8768525  94.9713612  48.4604406  63.8924646
  94.3264866  48.4484625  63.1851959  94.7500610  49.2378330  64.4052219
  45.2764273  62.1920538  90.0839329  45.1814127  63.0556154  90.4857635
  46.2150383  62.0094967  90.1276493  20.6028152  15.0130737  38.2605577
  20.2920461  15.2270508  37.3808599  19.8076570  14.9705732  38.7917352
  44.3924999   1.8428914  21.5248656  43.9895296   1.0003114  21.7344022
  43.6534452   2.4226606  21.3407588  42.6117659  13.7517142  19.1437781
  43.2092667  14.3225670  18.6607170  42.5937223  12.9399908  18.6368155
  35.8633995   5.2849066   5.4117942  35.8401871   5.4382014   6.3563544
  36.3423896   6.0348618   5.0591367  22.3470664  17.5387836  36.4531755
  22.5911617  18.4577549  36.3429976  22.9495072  17.0609426  35.8831167
  22.7567840   9.5826036  48.8537502  23.4651446   9.0554488  49.2232895
  22.9679084  10.4805088  49.1095257 101.2681770  92.2193241  19.2673099
 102.0962048  92.6994991  19.2729795 100.8422947  92.4665928  20.0881100
  41.2857723  69.6798849  87.5530148  40.5874777  69.4110966  88.1499767
  41.2525702  70.6364775  87.5608540  21.8538499  12.3792148  20.8341932
  21.9451618  11.4877629  21.1706543  21.2256527  12.7949429  21.4247584
  36.9914460   7.9856598  43.5465145  36.0420656   8.1039423  43.5162592
  37.3282433   8.5789442  42.8750896   4.3067637   4.5728934  38.7156606
   4.2828226   3.8860619  38.0493879   4.8199624   5.2756327  38.3168936
 109.5461369  19.7691476  13.6294019 109.0229130  20.5264139  13.8921094
 108.9131451  19.1620195  13.2460749  19.8283494  34.8504138  31.4712667
  20.2601051  34.0377402  31.7346716  18.9427495  34.7773457  31.8270850
  88.7357712  82.1422195   6.9157493  89.2195702  81.7377377   7.6358646
  89.4042110  82.3414421   6.2602055  81.6142941  93.2576752  52.0627975
  82.2830772  93.4839725  51.4164734  81.4803696  94.0638351  52.5611973
   2.9412207 104.1214371  31.5869212   2.1015984 103.7854862  31.9006157
   3.1033358 104.8983574  32.1220374  22.4968839   0.9678577  42.8595018
  22.1878433   0.0826790  42.6666689  22.7925372   1.3076338  42.0148849
  25.6913757  79.1710711  17.8599119  25.6616688  79.5954323  17.0024347
  25.6052041  79.8899460  18.4860301 109.6452236  18.7492979  31.2339759
 108.8170147  19.1652930  31.4732671 110.0133705  18.4524274  32.0661831
   2.8279707  11.5286624  42.8528261   1.9009101  11.6265988  42.6355696
   2.8387228  11.3905466  43.7999487 109.8378754   4.4907898  56.1890554
 108.9668846   4.7990701  55.9389353 109.6898174   3.6117756  56.5378332
   4.8031637   8.9337552  18.4841347   5.6542414   9.1973811  18.1342781
   4.7615537   7.9903972  18.3273685  16.5310180   0.2874197  15.2724802
  17.2465837   0.9154139  15.3715789  16.3858557  -0.0516302  16.1557734
  93.5543537  90.7868767  41.1552429  92.8819084  90.6277847  41.8176126
  93.8163185  91.6970634  41.2936831  62.4294424  83.1616974  85.2687740
  62.0187283  84.0158558  85.4027653  63.2890654  83.3645153  84.8997974
  80.3029251  29.8485684   6.5320855  80.5832481  29.5635915   7.4018180
  80.6883144  30.7187128   6.4293802  22.6334524  50.6090212  10.8095014
  23.2611799  50.4259491  11.5085542  22.9756093  51.3927937  10.3795516
 100.2703285  98.1315231  30.6722903  99.4902706  97.6031876  30.5031490
 101.0025883  97.5417328  30.4929209  93.4121227 101.0294819  31.0078263
  93.4206486 100.1088428  31.2697101  93.0342960 101.4884186  31.7580676
  33.0946088   3.1977090  27.8318191  33.6668110   2.8565997  28.5191774
  32.4733806   2.4891365  27.6637936  65.2459621  72.7581167  86.4429474
  65.1399660  73.0964851  87.3320580  65.5930138  73.4981585  85.9448242
 112.1717365  51.4621496  41.1739683 111.5248323  50.8100367  40.9047174
 111.6660837  52.1160364  41.6566467  99.8685551 105.3121281  14.7484803
  99.7943783 106.1978054  15.1038909  98.9700699 105.0665188  14.5279598
  30.5961967   0.4482720   4.5181549  31.0344696  -0.0386255   5.2160645
  31.2811780   0.6035475   3.8678306  39.3810105  24.0204215  21.0614920
  38.9901161  24.6215844  21.6955566  40.1644039  24.4750142  20.7518697
  11.6967618  13.3786464  36.1566305  12.2289729  14.1634285  36.0258651
  12.3311472  12.6886356  36.3507247  47.9702187  23.9392066  26.3527751
  48.1916380  24.2552614  27.2287393  47.2490644  24.5017171  26.0703802
  92.1331215 104.4820595  21.6715097  92.4873829 105.3046417  21.3337398
  92.4654865 104.4281292  22.5675321 104.5192242  88.9795971  16.6941345
 103.8038158  89.6149540  16.6668785 104.4503307  88.5056305  15.8653736
  46.4758062  21.7017531  35.0079370  46.4375305  21.9242501  35.9381318
  46.8764067  20.8326960  34.9858284  48.9676142   7.7680862  33.5793304
  48.2135487   7.1800816  33.5361719  49.1704226   7.8293854  34.5127869
  32.8400111  28.8981962  15.8313787  32.0371580  28.5068202  15.4871655
  32.9170895  29.7326660  15.3688323  14.7441256  52.6305771   8.2040429
  14.1137302  53.2612753   8.5519695  15.1789987  52.2743511   8.9787823
 107.2345257   4.6877176  19.0428555 107.7890873   5.0477195  19.7350264
 107.7103519   4.8740926  18.2334805  34.6628404   2.8862289  33.5299039
  34.1272426   2.1228817  33.3138776  35.5438709   2.5332505  33.6540890
  38.7944794  94.3569374  58.9178753  38.6414075  94.7489929  58.0581713
  37.9272985  94.3181610  59.3212700  42.3962831   6.1158592   9.7175270
  41.5457678   6.4723051   9.4610035  42.9216433   6.1509508   8.9181542
 102.0661831 104.1142750  16.3795018 102.8741360 104.4773769  16.0167336
 101.3848782 104.7307205  16.1110842 103.0630589   2.3599762   5.8496165
 102.5640869   1.6385549   6.2327671 103.1616783   2.9891050   6.5642518
  28.5824561   5.0352794  23.4184647  27.7719450   4.5295221  23.3592081
  28.3528733   5.7935679  23.9556074  92.1935463  76.7198563  20.5028248
  92.6144123  77.2001839  21.2158418  91.2875748  77.0287561  20.5079508
  72.0948076  72.0116377  26.9583583  72.2133923  71.3930178  26.2376118
  72.7782774  71.7804193  27.5873566  94.8992825  76.7596292  15.9125245
  94.5721054  75.8818102  16.1090660  95.7374096  76.8112850  16.3719749
  60.4733896  31.1953688  87.1088982  60.1219082  32.0103884  86.7505264
  61.3248444  31.4405179  87.4710560  73.0476093  70.8315945  34.2155933
  73.5007429  71.4408970  33.6327934  72.1959162  70.6925869  33.8014412
  95.0754166  67.4906826   2.8433943  94.7908020  66.6642094   2.4533041
  95.9396839  67.6495647   2.4638885  67.3710775  17.3032224  74.2061758
  68.1857967  17.6714766  74.5480156  67.5970697  16.9954777  73.3284187
  49.4800425  18.2320380  83.9234352  49.5327187  18.2215846  84.8791218
  48.6438608  18.6577773  83.7342930  33.1052780  48.0271721  89.7873402
  32.9934239  47.0970297  89.9837017  33.5049844  48.3922386  90.5767727
  94.2606831  76.2210226  34.0112066  93.7809467  75.4894781  33.6227012
  94.8049355  76.5559626  33.2985806  82.7578640  72.9067183  31.3774753
  83.1477451  72.6853132  32.2231722  83.0319214  73.8095903  31.2164116
  98.9042091  88.3957386  13.7584293  99.2927742  87.5620079  13.4935999
  99.5593929  88.7940788  14.3313992  90.8815861 105.2212811   5.9002858
  90.3346634 105.1254845   5.1205868  90.2711201 105.1376915   6.6328031
  86.4483643  51.8976927  53.7607241  86.7382622  52.6648760  53.2671404
  85.8506107  51.4429522  53.1673193  14.6647775  68.1953430  21.1527777
  14.9683607  68.9011717  20.5819225  15.0409651  68.4009075  22.0086145
 107.6893806 102.0437813  28.5550094 108.3477306 102.4148273  27.9675317
 106.8690491 102.4583912  28.2878232  45.5273581  56.7809820  83.7791634
  46.1608410  57.4254608  83.4635925  45.9948587  56.3001537  84.4621563
  61.6114473  77.5245047  41.6826296  61.1287069  78.3212185  41.9027138
  62.5122976  77.7091885  41.9483137  25.7498884  40.1283979  62.8042746
  26.6819143  40.0317621  62.6087761  25.3594017  39.3004131  62.5246429
  66.8776846  98.3945942  23.5877466  67.5591278  98.7790012  23.0362916
  66.8413115  98.9645863  24.3558717   8.3608830  76.7642260   8.7482995
   8.1990951  77.5717068   8.2604164   8.5460335  77.0566177   9.6407437
  93.2633400  49.1054487  40.5959177  93.2803726  49.8297071  41.2215328
  93.0292988  49.5142031  39.7626281  46.5731144  36.6179204  73.5740995
  45.9023237  36.3352823  74.1956997  46.1290789  37.2569180  73.0166531
 105.1918125  94.6052933  29.8672843 105.2133465  95.5357552  29.6436667
 105.5209351  94.5671082  30.7653117  31.4804864  38.2563639  66.6746712
  30.8942127  38.9399481  66.3502836  31.2573338  38.1693721  67.6014185
  59.2505455  42.7804279  88.1553936  59.8315525  42.9641056  87.4172020
  58.5003614  42.3327923  87.7641392 106.8131733  45.4115200   1.1214674
 106.2656975  45.3297138   1.9023731 106.7636490  46.3390732   0.8903308
  22.3147225  33.5162497  80.3431034  22.3126197  32.5698709  80.1995945
  21.4764667  33.8139606  79.9896574  88.0152130  82.0009613  41.5201616
  88.5272217  82.4425125  40.8425856  87.1056938  82.1105957  41.2426853
  44.2069674 104.3879318  89.0989685  44.7155809 103.7552547  88.5917568
  43.3685684 104.4438553  88.6404991  66.7691469  19.9173641  54.9464226
  67.4840736  19.3711615  55.2731800  67.0457411  20.1726317  54.0663290
 108.5573769  86.7973232  10.7057953 108.1207180  86.8905830  11.5524721
 108.3959198  87.6289177  10.2601480  93.6881065  85.9678841   7.2477365
  94.5625877  85.6136894   7.4092025  93.7255573  86.8622208   7.5868499
 109.8187447  73.5047722  43.1362009 109.9591351  74.0037632  43.9408970
 109.0651035  73.9251900  42.7220774  86.3585472  35.9789157  89.2422390
  86.6671181  36.7350292  88.7429237  86.8007183  35.2305555  88.8413906
 105.1672077  57.3552561  32.4594069 104.4944572  58.0121899  32.6384830
 104.6994686  56.6485596  32.0144105 111.1569500   0.0791564  15.4859138
 111.7374134   0.6329805  14.9638247 110.2957726   0.1873039  15.0822961
  78.7498665  76.4341497   5.5962908  78.5937119  77.3461390   5.8414966
  79.1526508  76.4847994   4.7294399   9.5678627   9.7090232  15.6993353
  10.2474964   9.0924031  15.9715664   9.4251907   9.5146102  14.7730088
  67.9754210  93.4508705  27.4207926  67.8774548  92.6731014  26.8715143
  67.3056269  94.0555382  27.1014428   4.1961345   6.1178321  22.8903008
   4.2569929   6.8398374  23.5157895   3.6685008   5.4566681  23.3382916
  46.7920876  93.6883926   8.5306865  46.3952255  93.4106636   7.7050972
  46.4991617  93.0372715   9.1682321  39.7284770  55.1098156  76.6598368
  40.3517437  54.4086885  76.8500853  39.7004485  55.1525259  75.7039976
  74.5959520  89.3931293  38.6302614  73.9483833  89.1589451  37.9653955
  75.3429604  89.7234440  38.1311607  17.1110296  33.1906343  90.4435825
  16.7730141  34.0329051  90.7478142  17.1366191  33.2730508  89.4902802
   6.4859897  43.3084536  81.5361977   6.9199955  43.9322615  80.9541988
   6.6499412  43.6477900  82.4160862  72.4605465  44.7674704  87.5892067
  71.6863537  44.5754766  87.0600700  73.0427742  45.2442169  86.9976330
  67.3621702  78.9641523   5.3031343  67.3310089  79.5118761   4.5187482
  66.4618874  78.6603642   5.4190463  30.4120064  17.7343440  88.5406971
  29.7138047  18.3786714  88.6572647  29.9530554  16.9133115  88.3632183
  31.6443872  39.6409512  78.9571142  31.9984078  40.2748442  79.5808744
  31.0557175  39.0950918  79.4784021   3.2624620  60.2827311   7.9191583
   2.9632336  59.4221449   8.2125652   3.4551457  60.7577419   8.7275332
   9.0672922 100.9218884   3.1289044   9.2938519  99.9923229   3.1004497
   9.5920777 101.2744236   3.8476193 108.8641262  92.6396847   6.6316545
 109.1617393  92.3911190   5.7565093 109.5722771  92.3627567   7.2130930
  87.3263454  88.4877777  42.2742128  87.2003937  88.8819504  41.4110804
  87.8408623  89.1328716  42.7593517 102.2504520  64.1784620  20.7864118
 102.8347397  63.7331343  21.4000249 101.7601204  64.7966337  21.3283229
  40.1413584   7.7346838   8.9173079  39.5874739   7.6816237   8.1384426
  40.4088640   8.6528027   8.9588773  29.6433711  20.6715178  56.0928106
  29.4070721  20.9469795  55.2070808  30.2320719  19.9279463  55.9633398
  55.4042578  98.4778976  23.9364696  54.7737217  98.0613327  23.3489919
  55.9180450  99.0518570  23.3682966  96.8430042  75.5914831  35.8083057
  96.1617470  76.1598921  36.1675191  96.8767929  75.8162594  34.8784852
  11.5723431  87.8094578   8.9322305  10.6820357  87.6325607   8.6284381
  11.5603042  88.7327290   9.1845471  67.8953505  54.5138931  26.8724346
  68.1070614  55.2032614  26.2430048  66.9477701  54.4023466  26.7957783
  94.1967964  82.5035572  34.2711163  94.4042397  82.8353882  35.1446605
  93.3752537  82.0257759  34.3852639  91.7865276  32.7946639   4.9235293
  92.6760960  32.5508595   4.6677047  91.3039207  32.8402066   4.0981477
  59.3686152  15.1208401  85.8357620  59.6912956  15.5757380  86.6136932
  59.9949551  14.4105089  85.6966209  77.8678274  66.0735798   9.9540037
  78.3266878  66.4519167  10.7040310  77.9776764  65.1283979  10.0579131
  99.0964031  97.5733471  16.8846500  98.4858799  97.4017048  16.1676884
  98.6247349  97.3000908  17.6714766 104.5425320  11.1728096   6.7352873
 105.4410267  10.9203327   6.5227151 104.0437794  10.9728575   5.9431422
  22.1827364  28.3417654  84.3350220  22.1390057  27.5411415  84.8578262
  22.9022741  28.1888747  83.7225533  12.2720098  77.3598528  30.1447487
  12.0593917  76.4640427  30.4065681  12.8210986  77.6929045  30.8545423
  47.1982758  30.1508572  91.2469475  46.6496270  30.6090214  91.8835733
  47.6162140  29.4519379  91.7500131  92.3832035   3.9434171   0.4125730
  91.6102982   4.4337502   0.1325273  93.1131268   4.5467335   0.2730645
  91.9206429  85.1341534  52.9688072  92.6106548  85.3703308  52.3488569
  91.8216801  85.9080887  53.5232973  52.5293875  12.1644855  22.3106909
  51.6844368  12.3728347  22.7092838  52.7788162  11.3272417  22.7018952
  72.8981733  79.4558811  24.4865417  73.8351393  79.2838478  24.3930984
  72.4900198  78.9454031  23.7872148   3.6408854  14.0687382  76.4202785
   4.2994672  13.5547900  75.9529877   3.6964223  14.9409401  76.0298777
 106.7486763  76.2100077   3.3717722 105.8398247  76.0692453   3.6371103
 106.7174149  76.2379551   2.4154910  40.6518316  68.7143850  90.2806950
  41.5914011  68.6616468  90.1055908  40.5904293  68.8129330  91.2308311
  99.2625618  54.0101433  87.3100662  98.5527706  53.4229565  87.5701523
  99.1641521  54.7723103  87.8807163   5.9957016  28.1969738  12.6462269
   6.4882725  28.6287713  11.9482613   5.2307916  28.7564230  12.7809870
  83.2991028 102.0083523  18.4455359  83.4300137 102.8372574  18.9059734
  84.1611862 101.7934704  18.0893481  52.7848530  40.6369066  79.2938185
  52.1092272  40.2700281  78.7235928  52.8657198  40.0039482  80.0072956
  41.5954542  28.6885476  62.8108406  41.9622993  27.8044891  62.8206491
  42.2613525  29.2193460  62.3737335  73.6848783  41.9410610  82.2803593
  74.5693350  42.2804880  82.4173260  73.7132311  41.5427923  81.4104080
  76.3626909  99.2178154  25.1001143  76.8170643  99.0845680  25.9319925
  77.0338631  99.5672798  24.5139050  79.7297573  94.6246624  33.6935329
  80.1529980  94.8913956  34.5095873  78.8445950  94.3706608  33.9547038
  94.1152477  86.8057251  21.2832665  94.3499279  87.7062893  21.5071678
  94.9518490  86.3793564  21.0973930  19.1193426  31.3985133  50.0310564
  18.2681966  31.0704780  50.3211832  19.5461214  30.6391287  49.6342850
 108.6943722   9.5588064  12.7578056 108.5970402   9.2030776  11.8745089
 107.9117489  10.0943458  12.8879201  78.3647394  45.7468414  89.9507523
  78.7568951  45.3895998  90.7475185  79.0739679  46.2354183  89.5330048
  21.2934446  48.7607622  81.6089535  20.6157041  49.4367027  81.6064072
  22.0491242  49.1777182  81.1950397  37.9099560  25.4009080  65.3449154
  37.4650645  24.6039844  65.6333780  38.6201239  25.5203843  65.9754848
  28.0756736  23.4169555  29.3420339  27.5992918  24.1386795  29.7524071
  27.4883127  22.6655126  29.4230986  25.2432752  16.5528238  51.5652990
  24.8851943  16.7082119  52.4392939  26.0517836  16.0646689  51.7210245
 105.8434391  84.4471169  31.6628194 105.3728294  84.8375988  32.3992205
 106.7214108  84.2757416  32.0034456  51.7351818  81.5411949  51.9284630
  51.1893320  81.6430664  51.1487865  51.3215303  80.8311462  52.4193335
  30.3578138  43.7061119  84.3370628  30.2677536  44.6169901  84.6170998
  31.1753321  43.6882210  83.8394928 112.2766652  74.6342468  25.5447507
 111.9129188  74.3242407  24.7154045 112.3922316  73.8405561  26.0671782
  95.8008385  76.3123178  64.8062134  95.7057571  77.0124531  64.1604567
  94.9164104  76.1793661  65.1473093  53.3305788   0.4208361  78.0707598
  52.4403429   0.0772586  78.1460476  53.8737440  -0.2181568  78.5321617
  89.2501831  54.3401670  89.7747803  89.3052197  53.3860731  89.7209263
  88.5902882  54.5791340  89.1238785  96.6570377  62.1255398  56.3120747
  95.9692383  61.5703106  56.6793394  96.7409801  62.8469181  56.9356155
  87.6181367  56.5312134  91.5765897  88.1557658  56.7803071  92.3283473
  87.7793506  57.2173844  90.9289694  41.2700081 102.6541138  89.4976521
  41.0694790 103.2541466  88.7793350  40.6792593 101.9131279  89.3627644
  39.1872859  26.5242147  85.9811211  40.0988960  26.3367343  85.7574177
  38.9962578  25.9413433  86.7159748  45.7962418  24.4173932  88.4349442
  45.6122732  24.2649913  87.5080299  46.6679811  24.0459442  88.5703373
  42.0347166  16.7487240  65.3295422  42.8739882  16.2909973  65.3779316
  41.4110661  16.1494470  65.7396173  13.8741875   5.3805166  17.2578311
  14.7895861   5.6161642  17.4086547  13.3781171   5.9733266  17.8223872
  89.6683311  85.2281570  16.4671695  90.5582047  85.3143978  16.1252284
  89.1175556  85.6576061  15.8126128  38.9370918  49.6474743  88.1710339
  39.0256190  49.2852402  87.2894573  39.4488907  49.0578365  88.7247658
  84.1929913  88.7442017   8.7979043  83.9414120  89.6622849   8.6975747
  85.0534725  88.6849213   8.3828205  84.1548538  94.4962788  22.3329163
  84.5385742  94.5813370  23.2057047  83.7036800  93.6522675  22.3508525
 100.5786324   4.5905733  10.5048323 100.9220219   5.4758942  10.3843176
 101.0244560   4.2651522  11.2868679   2.7022222  86.3670540  16.7260718
   2.2597495  86.8404198  16.0215318   2.0681864  85.7069111  17.0061314
  72.8968143  37.5692534  79.6699762  73.1977129  36.7671037  79.2430687
  73.7001801  38.0049157  79.9546432 106.5282726  98.4752655   0.9097663
 107.3812580  98.7412262   0.5663565 106.4768600  98.8900566   1.7708936
  17.9015648  19.6163416  17.9439294  18.2267725  18.7567425  18.2114398
  18.6727357  20.0681901  17.6013494 104.7787952   9.3321508  38.1248140
 104.5609379   8.7098902  37.4308681 105.5382538   8.9470899  38.5620451
  34.2825985   1.6609970  29.8764181  34.5120430   1.3651264  30.7573557
  33.7515020   0.9508797  29.5160007  79.1312933  60.9443331  78.9939308
  79.7452688  60.3870344  79.4721365  79.4244957  61.8367243  79.1780567
  22.9343176  15.3574729  31.6053271  23.2757235  14.5831180  31.1580610
  23.2709002  16.0954821  31.0971093  96.3366032  85.2137947  27.4716401
  96.9159698  85.1644325  26.7112899  96.2958050  86.1468124  27.6815033
  80.3480339 104.5691967  34.3119335  80.3682518 103.6122227  34.3159509
  80.1874733 104.8092079  35.2245378  77.7222347  24.7032619  81.1308861
  77.6202679  23.7519240  81.1590481  78.4672689  24.8813820  81.7048454
   1.4242181  66.0193110   7.9039532   0.7460163  66.0276079   8.5793829
   1.0947289  66.6097546   7.2264272  82.5313854  60.8790970  20.4547524
  82.1123123  60.9074736  19.5946348  83.0055237  60.0476170  20.4628515
  42.8465509  49.9772787  72.1327448  43.3369064  49.8591948  72.9462862
  43.4029293  50.5433702  71.5977526  40.1029062  41.5133238   5.7438970
  40.1688862  40.5842829   5.9647143  40.5749750  41.9605684   6.4462906
  10.7149744  74.1714430  63.3028698  10.9435654  74.0721655  62.3786831
  11.5134513  74.5041752  63.7126923  27.5423551  64.6338940  75.7552004
  27.5820017  63.9200640  75.1187229  27.8850818  64.2531395  76.5637779
  16.0501969 101.5222740  10.2709222  16.2057817 102.4599934  10.3836775
  15.4964280 101.2804031  11.0132635  29.1038156  65.2527475  83.7233067
  29.9936843  64.9287462  83.8625526  28.5752296  64.4620943  83.6151600
 110.2896023  80.0322247  18.8307846 110.5282974  80.9386635  18.6368036
 111.0755539  79.5275402  18.6214924  42.5651979  86.5972424  19.2321682
  42.2796631  87.4903584  19.4246566  41.8865776  86.2481022  18.6544073
  39.6581411  46.5739441  82.2722435  40.4561949  46.1232948  82.5483894
  38.9712977  45.9112978  82.3456001 106.2450886  86.1553860   6.5303719
 106.8490791  86.7423058   6.9852841 106.6992760  85.3130436   6.5101391
  68.2161188  10.8354402  19.1287386  67.8403234  10.6221628  18.2746172
  67.4708223  11.1321127  19.6509922  56.3931990  74.6571541  90.5655098
  56.6579151  74.1360903  91.3235664  55.4919577  74.3857908  90.3912640
  25.6646204  91.6779041  13.2293153  25.2237749  90.8381653  13.3586156
  26.5948176  91.4790440  13.3361685  97.4097977 105.9940027   8.7615514
  97.0858250 105.6229048   7.9408443  98.3617507 105.9141267   8.7012339
  64.7288895 101.7196178  39.9846649  65.4295588 101.2158394  39.5705366
  65.1255178 102.0710850  40.7817793 109.4071007  94.4922066   9.2587787
 109.9450397  93.7777710   8.9175642 109.1204739  94.1863060  10.1193011
   7.6831323  82.4884224  12.7146256   8.3887988  81.9100857  13.0041015
   7.0208859  81.8974304  12.3563051   9.6333033  69.0091419   0.4754744
  10.2548790  68.9873743  -0.2521259   8.7755144  68.9185238   0.0604835
  68.2466459  71.1061382  33.2879424  67.4045467  71.5319109  33.4486341
  68.8977766  71.7526054  33.5605979   2.0413597 104.9911213  23.4862566
   2.3901615 105.7950020  23.8714170   1.9831736 105.1799202  22.5496674
  85.1727104  87.8786659  24.7753358  85.9002399  88.3754444  24.4009829
  84.7731400  87.4374580  24.0257239  22.6141548  39.3915176  77.8599119
  22.2390056  40.2583742  77.7048111  23.3737373  39.3517971  77.2788000
  47.6771593  66.8609333  89.6898746  47.4545765  67.7549744  89.9494553
  48.5517693  66.7172956  90.0513458   7.3789459  67.5204754  39.6806550
   7.0606446  66.6550159  39.9373555   7.2200799  68.0711889  40.4472780
  67.1300268  77.9275084  91.1621857  66.8120003  78.6846495  90.6704235
  66.6323185  77.1884727  90.8124161  95.0171566  96.7057228   5.1210767
  95.8778763  96.2917900   5.1847124  95.1902008  97.6387310   5.2467418
  93.4390354 100.1824951  14.7531509  94.0745354 100.1522923  14.0379894
  92.5965405 100.0112247  14.3323076 101.5434265  82.7187729  15.6029189
 100.8540726  82.0882607  15.8114016 101.9850254  82.8755569  16.4375722
   6.1613756  19.8187661  13.1306100   5.9090424  20.3206110  12.3555541
   6.0980880  20.4445148  13.8521814  87.4388599  41.2791109  82.1147728
  86.9709301  41.7663050  81.4365959  88.0316067  41.9213343  82.5052071
 103.4389019  22.9268765  66.2227631 102.7494621  23.5195804  65.9234333
 103.3221436  22.1373630  65.6943083  81.7124844  80.0938320   0.7481144
  81.0032272  79.6806622   0.2556993  82.2099590  80.5791569   0.0899281
  83.9467335  66.6289997  52.5411558  84.8306465  66.2657690  52.5958920
  84.0784168  67.5767517  52.5154924  82.2851086  92.2599316  32.6025128
  82.7369022  91.5759754  32.1082354  82.9529858  92.6103687  33.1918883
  71.8997335  89.4645882   1.7432910  71.6459703  88.5418415   1.7626704
  72.6986933  89.4822598   1.2164313 100.2003098  82.1370697  22.0358539
 101.0815716  81.7708588  22.1101213  99.6495152  81.3901234  21.8014979
  93.0345821 102.9365444  29.1601014  93.4002304 103.5423088  29.8047590
  92.9636097 102.1039867  29.6270537  52.7055120  37.3658848  85.8577061
  52.8064108  37.8645062  86.6685200  52.7299547  38.0266333  85.1655769
  12.7824497   7.1418428  10.0636876  12.6453757   7.4260426   9.1599876
  13.0186844   6.2171251   9.9907362  37.3909664  72.3947096  89.6177578
  37.9841256  73.1219864  89.8060703  36.9032717  72.6775360  88.8441944
  90.2221298  89.4487381  24.8156571  90.1255512  88.5520267  25.1363158
  91.1517715  89.5277882  24.6017480  78.1413126  94.1700554  17.1435964
  79.0289307  94.4948578  17.2948301  77.7086830  94.8725033  16.6581798
 101.8204784  92.9971027  23.4633946 102.5060654  92.6390743  22.8994584
 101.0021973  92.7323341  23.0432296  45.6105232  49.6256495  27.9825330
  46.5318966  49.3910837  27.8717256  45.4819775  50.3736496  27.3992658
  30.8034325  44.2241859  80.7121372  31.3868737  44.2516279  81.4704800
  30.1168704  43.6051464  80.9604359  86.1714268  22.5884628  69.8832560
  87.0497799  22.8751254  70.1333523  85.7953453  22.2369766  70.6902599
  78.0562735 102.1431732   9.5894736  77.2316074 102.3745060   9.1621137
  78.3454037 102.9544449  10.0071669  62.5232220 103.7567234  41.6426420
  62.2855234 103.0827904  41.0058165  63.4006739 103.5106754  41.9355154
  78.4321880 105.2764416  23.2577038  78.2012653 105.2701283  22.3287964
  77.7799702 105.8480835  23.6627650  33.5357451  29.3243098  11.7759609
  34.2411900  28.7733746  12.1151543  33.2850671  28.9108515  10.9498584
  65.4650640  95.2992249  18.9995837  65.6222820  95.7218647  18.1552577
  65.4545927  94.3630123  18.8005245 100.9337997  86.7409611  15.6565058
 100.1306438  86.4694881  16.1008894 100.8213997  87.6803875  15.5113387
  53.2148314  54.1986799  82.3508358  53.3203363  55.1140356  82.6101112
  54.1069937  53.8528681  82.3244190   6.5330499   6.8705529   8.5193133
   7.0435578   7.6799214   8.4961492   5.6360257   7.1579623   8.6895335
  72.2063351  35.3240442  82.0103168  71.4419031  35.7971907  81.6816711
  72.5239182  35.8582616  82.7383232  47.5544071  33.0247808  87.9018879
  47.4439478  33.6691093  88.6010838  47.4038219  33.5181332  87.0955658
   1.3124263  10.7590377  24.2930150   0.9227964   9.9848706  24.6993208
   1.9149394  11.0991061  24.9545002 100.4825497  96.4358521  46.5167618
  99.8789692  96.9624138  45.9926796 100.2319622  95.5304718  46.3331318
  77.3052883  54.6134615   7.1463448  78.2137680  54.8537827   6.9642985
  77.1443319  53.8489771   6.5932745  91.9618130  40.0214815  89.8762798
  92.3044682  39.2780375  89.3801785  92.7161694  40.5987453  89.9943638
  97.9205608 103.1573200  21.4547396  97.1423721 103.4283924  20.9677291
  97.6961708 102.2948170  21.8039751  93.4750080  48.2212400  74.1270828
  93.7984753  49.0080023  73.6882114  92.8312588  47.8559446  73.5201406
 109.7827339  76.2664986  16.8706667 109.5711136  77.1613550  17.1365190
 108.9515591  75.7956696  16.9314742  32.9820633  83.1542873  32.9059577
  32.5662041  83.7836456  32.3167086  33.8999200  83.4242725  32.9356170
   9.9934089  25.4611397  73.6887693   9.1709751  25.9262705  73.8420248
  10.5077553  26.0571146  73.1442547  42.5800323  49.3538427  87.3586178
  42.8843212  49.1984558  86.4644814  42.1875906  50.2264166  87.3298359
  22.1449280  87.6375198   0.6253120  22.5819635  86.7859459   0.6187256
  22.6338720  88.1527042   1.2669878  96.0260963  85.6316376  14.4867694
  96.7784500  85.6792641  15.0766253  95.5641270  86.4592457  14.6205115
  11.1035359  21.4869905  10.9218538  10.4063153  20.8377123  11.0143363
  11.5194654  21.5161777  11.7834699   4.1237488   0.1956172  18.6106598
   5.0666440   0.3297412  18.7065303   4.0085587  -0.0472423  17.6919746
  23.7740183   6.0226250  11.6747224  23.9676952   6.3558304  12.5509048
  22.9040170   5.6314456  11.7541373  72.5633526  68.1491470  25.8277798
  73.0757380  68.2654095  26.6278911  72.9479170  67.3803711  25.4066801
  95.0142860  90.8021832  27.9356027  95.4481125  91.2382507  28.6690021
  94.1487026  90.5709267  28.2725215  10.1475167  91.3332176  33.2224774
  11.0090864  91.2314510  32.8180361   9.6484119  91.8556690  32.5946474
  25.6685257   3.4579808  25.5043292  24.7984982   3.6355314  25.8617616
  26.0458875   2.8125691  26.1020541  67.3711491  91.2072659  19.4784081
  67.5265694  91.9055271  20.1144242  66.7358255  91.5781593  18.8660097
 107.8856468  95.0686646  19.3385875 107.4088860  95.7499409  19.8127162
 108.0139446  94.3730831  19.9835300  68.2520087  69.4936190   0.2482494
  67.8111370  68.6906229  -0.0293461  67.6534231  70.1958094  -0.0064197
  79.3268156  41.0399246  84.1086483  79.8666048  41.4863920  84.7609711
  79.3777752  41.5983057  83.3328629  32.5340009  19.3593669   4.7354481
  31.6290426  19.1109955   4.9241132  32.4611521  20.0383186   4.0646651
  16.8247581  18.3922243   1.3335167  16.3773346  18.9776134   1.9445513
  17.6133752  18.8705420   1.0775302  39.6587420  54.1064405  74.0589809
  39.8664784  53.2273293  74.3755817  39.9289513  54.1003799  73.1407309
  14.4588900  68.6016798   7.8212780  14.0177810  69.3308592   7.3854464
  13.7730873  68.1836367   8.3419973  25.6804895  26.1593127  80.1840401
  24.9066949  25.6391263  79.9675226  26.0569286  25.7221460  80.9478569
  44.8620272   4.7961807  13.0544519  44.8053694   4.8989904  14.0044260
  44.5055008   3.9239258  12.8862524  68.8263750  78.5425138  84.4911385
  69.0790653  77.8801918  83.8479328  69.6354675  79.0204525  84.6732903
  13.4228075 101.4227867  27.8255558  13.2971799 100.9141541  28.6266470
  13.1492710 102.3097134  28.0596018 108.8595963  65.3370047  31.4868498
 108.4712505  65.5638075  30.6418777 108.4681034  65.9551239  32.1040154
  38.4157753  12.6864958  20.6062365  37.6607966  12.5852168  20.0266004
  38.0451131  13.0067730  21.4285898 102.0693874  98.4962273  26.3509059
 102.6895046  98.3655167  25.6335497 102.2751713  97.8003979  26.9751763
 105.9205723  38.1395149  18.5942996 106.6851330  38.6763072  18.3856571
 105.8408642  37.5381565  17.8538632 107.6699352  79.5965767  20.5543494
 106.7712307  79.8191357  20.3113723 108.1344414  79.5312452  19.7199690
  34.9282336  20.6152153  24.0866733  35.6576729  21.2008023  24.2897463
  35.3406310  19.8469365  23.6918211  42.9053354  47.9553509  67.4057722
  43.7889481  47.8555250  67.0515203  43.0284786  48.4349298  68.2249594
 107.2183514  97.3410511   9.4097537 106.6413879  97.9912949   9.8104095
 107.3034000  97.6247787   8.4995335  85.4186821  87.6773167  12.7124345
  84.4889545  87.8116703  12.8962529  85.4504013  87.4674320  11.7790675
  18.6731315  62.0754147  52.4714518  19.0803111  62.8815603  52.1543312
  17.7583790  62.1456718  52.1984577  74.9503469  82.6630306   7.4964583
  75.3964424  82.2667503   8.2449204  75.6306076  83.1698418   7.0530468
  28.6529756   6.3795215  38.3250642  28.3319473   7.2663689  38.4883881
  27.8916240   5.9075415  37.9877019  85.2500534  63.9623833  80.8020306
  84.4254971  64.3472147  81.0990810  85.8593655  64.6997404  80.7663155
 108.8557720 100.2202702  30.2097249 109.5323944 100.7668686  30.6092787
 108.3010960 100.8368206  29.7317863 111.6280651 103.5366917   6.5709364
 111.8699932 103.7961483   7.4599743 112.4562263 103.2883930   6.1601633
  80.8725643  45.0810432  81.8034649  81.7760754  44.9609470  81.5111065
  80.5348206  45.7879448  81.2535095 111.4030266  89.0317059   6.7041951
 110.5508804  89.1620922   6.2881649 111.5662289  88.0917454   6.6263908
  34.2803812  44.9549103  78.7592840  33.5172272  45.5241299  78.8583374
  34.7488880  45.0357008  79.5900679 103.6882687  82.2562313  10.4821873
 104.4626999  82.8188038  10.4832637 103.4753609  82.1400261  11.4081454
  17.4005604  10.3729022   5.3897709  17.1925914  11.2737489   5.6376719
  18.3562016  10.3530216   5.3389132  24.6754074  72.3106337   8.1581247
  24.9477768  73.2261276   8.0955899  23.8103437  72.3454618   8.5663956
  82.0980740 105.7565022   7.3785865  82.2153854 105.6449413   6.4351755
  82.2858715 106.6818905   7.5355178   0.7243512 101.7125893   9.9300808
   1.6348445 101.7115688   9.6347290   0.2640254 101.1708355   9.2891181
  80.8293438  69.2831278  66.8281603  80.3389835  68.6693573  67.3750305
  80.4520512  70.1390600  67.0312643 103.4162807  82.3580551  44.1485739
 103.2969284  83.2429123  44.4935465 103.7473202  82.4899578  43.2601786
  51.2212467  73.0042362  68.6726570  51.3701391  73.7712860  68.1197643
  50.3765583  72.6600552  68.3823538  36.2313914  17.9797792  40.9221077
  35.7440042  17.6609194  41.6817236  35.7174921  17.6892698  40.1686192
  28.1122375  16.7012537  10.2207720  28.4785199  16.5787554   9.3449515
  27.1644950  16.6984367  10.0865710  46.5564394  35.2459192  89.0694332
  46.4599752  35.8859825  89.7745895  46.7660236  35.7705832  88.2967567
  43.3389235   9.8352337  33.5292697  42.6764011  10.3424084  33.9983869
  43.8388300  10.4887044  33.0400872 109.5894718 102.6364899  26.5180397
 110.3998756 102.3245335  26.9207335 109.4987774 102.1102715  25.7236171
  92.6588249  61.0890245   4.9609306  92.5671387  60.2153111   4.5808706
  93.1632137  60.9498310   5.7624614  24.4460201   8.2926279  19.8752546
  25.2251005   8.0507421  19.3745005  24.7866368   8.7654692  20.6346202
   5.3613794  94.0114212  32.1967721   5.9116602  93.4385395  32.7308393
   5.8367431  94.0979004  31.3704658 105.3489780  97.3254013  41.8545341
 105.4086304  97.4752235  40.9110117 105.6845856  98.1314850  42.2467327
   8.1172377  83.8983536  15.2440906   7.4383157  84.5651340  15.1406884
   8.5205603  83.8309765  14.3786299  39.6617222  23.5160804  80.3919029
  40.2843714  23.3225751  81.0926819  39.9921393  24.3212748  79.9935055
  98.3232689  72.8666544  17.8512919  97.5600815  72.5233126  17.3866379
  98.9063931  73.1761885  17.1581960  15.2997184  77.9212809   4.0705153
  15.2756357  77.4496460   3.2379204  15.5490077  78.8143444   3.8327739
  53.2842350  35.4670382  81.0442734  52.7269936  35.0535226  81.7036057
  53.3073568  34.8390555  80.3222370  77.7430725  91.3491154  14.1622722
  76.9906759  91.9304752  14.2725480  78.4517431  91.9259930  13.8772571
  44.7826004  38.6231494  88.6785603  44.7206783  39.5760703  88.7444401
  45.5805254  38.4012318  89.1584587  27.5459766   0.7224867  12.8856540
  26.6850710   1.0973658  12.6998043  27.6571631   0.0387651  12.2250521
  63.2774544  16.1354721  75.6645250  62.5520229  16.0872698  75.0419044
  63.9990330  15.6836772  75.2269888  98.8828468  63.1911182  16.7261755
  98.5919571  62.3960400  17.1727979  98.1003094  63.7405348  16.6812646
 110.4526711  81.8284512   8.2675868 111.1817932  82.4400425   8.1647813
 110.3103924  81.4755630   7.3892593 100.2231693  10.3305078  10.1214468
  99.4679356  10.2690184   9.5365745 100.8875084   9.7747380   9.7140121
  31.1433268  11.0963774   3.4701461  30.2678442  10.7315731   3.3409882
  31.1371493  11.4208245   4.3706614  87.4946785 103.0264568  25.3588700
  87.1153164 102.6637173  26.1593294  87.0372391 102.5735760  24.6504354
  12.4042630  79.1306591   1.2554795  11.9879830  78.3616400   0.8661821
  11.6845739  79.6113539   1.6643958  89.6354580  18.4528804  52.0803976
  89.7426128  18.0273080  51.2297297  90.1417351  17.9104018  52.6850700
  25.8827329  53.7149477  69.6901560  25.5190039  52.8338718  69.7775888
  25.5120277  54.0470505  68.8725281  42.7826452  54.3947506  88.3906460
  43.6675596  54.3501711  88.7528324  42.6887131  53.5858440  87.8875828
  70.6101696  41.1681892  91.9886140  69.8331921  40.9964134  91.4566026
  70.7732098  42.1050026  91.8789617  14.0903234  20.3682089  63.7897348
  14.8390818  20.7224846  64.2694044  13.5758972  21.1378551  63.5463381
  73.4525728  41.9264698  85.0755405  73.6310434  41.9332552  84.1351509
  73.5695219  41.0125399  85.3349400  26.5244055  10.2390718  43.7664366
  25.8900547   9.9098206  44.4031668  27.3164296  10.4007721  44.2790604
  13.4269726  12.3247576  33.4778428  12.4929154  12.1205330  33.4324241
  13.6701190  12.1337974  34.3837380 101.6417980  38.3852220   8.0719280
 101.9790363  39.0950441   7.5254369 101.0062695  38.8085508   8.6491024
  51.9690275   5.6495440  18.0918932  52.0120955   6.0784137  18.9465559
  51.3759422   4.9100408  18.2246172  81.9049168  86.3876629  51.0209656
  82.1083736  86.0652828  51.8989754  81.5855217  87.2790527  51.1611605
  41.9929838  65.2109528  88.8213444  42.2345972  65.9319687  88.2399750
  42.1157885  64.4238901  88.2906055   4.1630921  22.3295951  51.5337801
   3.5767633  22.2346401  52.2844028   4.9471101  21.8380475  51.7785883
  65.6927674  51.3591434  90.3743904  66.6000168  51.6576244  90.3107164
  65.6757729  50.8098843  91.1581348 110.6742668  82.4438953  80.2543259
 110.5166054  83.3743668  80.0943089 110.0210953  82.1995831  80.9099960
 110.3088284  92.5179577   4.1885647 111.1383438  92.1519661   4.4954848
 110.5623055  93.2695675   3.6527854  22.0831561 105.8596516  12.0870674
  21.3810253 105.4523754  12.5943923  22.5748968 105.1229000  11.7242765
 109.3369198 106.0413647  39.4294786 110.1788902 105.9773540  38.9786673
 109.5619011 106.0302639  40.3597975  75.9471369  91.6279125  30.3301668
  75.4154730  92.3268414  30.7110357  75.3359556  90.9013844  30.2083254
 108.2924080  82.1904755  45.5545616 107.4962139  82.6879597  45.3679705
 108.8343620  82.7895737  46.0679865  10.5306005   3.9618865   6.5362495
   9.6640933   4.2094108   6.8589383  11.0860658   3.9639246   7.3157912
  69.8485756   5.6958371  32.2206259  70.3166389   5.2118140  32.9009700
  69.4869328   5.0177175  31.6500139  17.7748144   0.8142411  30.7155228
  17.3825741   0.2432521  31.3760924  17.7009666   0.3211823  29.8984122
  84.8217010   9.0475619  10.7124949  85.6980801   8.6692560  10.7836914
  84.9689102   9.9933493  10.7057631  40.3485584  16.2496722  10.6743526
  41.2489939  16.2211883  10.9978199  40.2009058  17.1702611  10.4576802
  50.4905319  42.5233698  76.4794779  50.5280542  43.4130478  76.8306208
  51.2409592  42.4675226  75.8878946  60.9831619  33.4602928  12.5758624
  60.1898098  32.9323244  12.4860144  60.9302759  33.8235593  13.4598708
  72.1889830  36.8766046  91.4883614  72.2605085  37.7907300  91.2136078
  71.3155746  36.6083717  91.2029934   6.5236449 103.9370346  14.5756781
   7.3795879 103.5869980  14.8227966   6.7193443 104.7760201  14.1584861
  49.6682310  14.3743587   0.9019908  49.6935749  13.4571540   0.6293654
  48.7559795  14.5256054   1.1492761   7.0504093 104.7077656   9.5714849
   7.6894057 104.7759819  10.2808940   6.6914028 105.5910397   9.4867545
  33.3830380  36.6078067  51.0726738  33.6424923  35.9562778  51.7241526
  33.9556098  36.4393997  50.3243160  29.1595149  34.9909878  25.9238219
  28.7534285  34.1261840  25.9824824  30.0627780  34.8512268  26.2080979
  95.0704098 100.6511497  28.5333586  94.6030426  99.9702930  28.0493832
  94.6547318 100.6603527  29.3955398  93.4450436  69.4040585  77.4134541
  93.7023830  70.0179720  78.1012869  93.8780022  69.7321510  76.6253328
  82.9601002  84.7948742  28.8852692  82.8317356  85.2973461  28.0807328
  82.2204018  84.1878128  28.9091134  59.2406464  34.2131901  28.7007213
  58.9904881  33.4195542  29.1737914  59.9280643  33.9268875  28.0992913
  70.0185156  65.3868866  37.9020619  69.7160864  64.7497129  37.2549319
  69.6846628  66.2263775  37.5857806  54.5183277   8.6145353  44.2643785
  54.4745398   9.3648773  43.6716700  54.1132545   8.9250165  45.0741625
  64.2583656  92.2453308  10.4011393  63.3814764  92.5978947  10.2495015
  64.8328733  92.7945518   9.8677230   7.6466942  96.4730072  15.2044511
   8.4910142  96.9122982  15.1025641   7.1253085  96.7813206  14.4632840
  50.2228165  64.9737740  24.1002345  50.8234882  64.5792580  23.4679484
  49.3530750  64.8258114  23.7288928  14.2190599  69.7635651  31.8198323
  14.6105564  68.9925051  32.2302318  13.4866571  69.9933910  32.3916674
  64.6175718  23.3348274  24.0592790  65.0248146  23.7786078  24.8032165
  64.0286922  22.6930833  24.4562888  37.0328450  13.2164252  10.1127791
  37.9669046  13.2270288   9.9038488  36.9906378  13.4716678  11.0343540
   7.8252631   4.9522310  35.7193184   7.5179905   4.3905085  36.4308524
   8.7694180   4.7988147  35.6837249  40.1645803  21.0963988  10.4882073
  39.3918085  21.6541600  10.5773866  40.9011555  21.6737628  10.6890631
  23.1286383   4.5020977  42.1810961  22.1770525   4.5975977  42.2210741
  23.4382486   4.8336560  43.0239725  81.9027233  19.5246947  22.4404931
  82.7977085  19.8639727  22.4297118  81.3514519  20.2997351  22.3325658
  30.3333330  99.3243885   0.3208189  29.6579838  99.3569088   0.9983716
  30.1287985 100.0598240  -0.2567098  75.8318377  84.9232101  84.3250179
  75.9594631  85.4472351  85.1157951  75.5646849  84.0628052  84.6483803
 100.6395245  93.6776161  40.9601831 100.5891991  93.1011963  40.1976633
 100.1464081  94.4570637  40.7041740  28.8162947  29.3305993  15.9116578
  29.1121411  28.4568381  15.6562161  29.5727897  29.7212458  16.3490832
  27.2150850  36.3295388  24.3129253  27.8860283  35.9316921  24.8677087
  27.2487521  37.2617745  24.5274901  18.5927534  20.4773402  32.4490905
  17.8792131  20.7754421  33.0132079  18.9523435  19.7139478  32.9009271
 105.5028343 101.5750217  36.3773108 104.6772385 101.1349964  36.1748242
 106.1706066 101.0413074  35.9466577 112.3899315  83.0526733  41.4825058
 112.3251319  82.1584797  41.8178177 112.2224488  82.9691887  40.5437756
  12.3393440  94.5526505  12.9604197  12.0685160  95.1897240  13.6214924
  12.2003293  94.9999142  12.1256375   6.9781977  46.0305691  47.6191235
   7.4412411  46.8343973  47.3831558   6.1101896  46.3260269  47.8938913
  91.9739532  78.0587339  79.5589304  91.8213654  79.0033579  79.5336819
  91.5544510  77.7270508  78.7650633  59.5480585  19.5716178  31.8985868
  59.8867464  18.8191032  32.3836064  58.6462784  19.3324435  31.6845322
  18.7815118  95.3387356  36.4627242  18.9548767  96.2074375  36.1000562
  19.6495557  94.9661827  36.6174436  40.0265789  15.7665527   4.8145807
  40.5669832  16.1076379   4.1019395  40.3610086  16.2023425   5.5984658
  33.5734487   4.2211545   0.2022501  33.8363624   5.0878960   0.5118735
  33.3395076   3.7433478   0.9979920   1.5901192 104.3237782  34.1445184
   2.4733660 104.0965748  34.4351768   1.0493656 103.5837460  34.4204903
   9.8583519  91.8765259  12.8106666  10.4425466  92.2358227  12.1429431
   9.2943943  92.6102066  13.0553937  17.1774054  38.8498259  33.6679196
  16.9277918  39.4245052  34.3915701  16.3636565  38.7055683  33.1849766
  94.8834896  74.5800734  81.3262177  95.3551960  74.9207163  80.5661583
  95.4723740  74.7380543  82.0641232   0.2288993  13.3280098  33.3363152
  -0.4392054  12.7086294  33.6299753   0.9072314  13.2860386  34.0103602
  53.3902359   9.0445900   3.3142585  53.8369751   9.8440039   3.5928145
  52.9865789   8.7050557   4.1130126 106.4858055  98.0681610   5.1482755
 107.2300434  97.4675369   5.1882964 106.7256546  98.7861061   5.7341510
  32.4726081   8.0197084  37.7739525  33.3191228   8.4646600  37.7331734
  32.3666573   7.7906501  38.6972833   5.4633516 103.0894756  32.0992422
   5.8909661 103.4576511  31.3260508   4.5693129 103.4295177  32.0632243
  16.0048783  92.2774220  17.8461874  15.0608695  92.2201538  17.6985407
  16.3573599  91.4778805  17.4553967 101.4869308  92.2158051  55.6339312
 101.9130898  92.0537949  54.7922850 101.0399532  93.0543423  55.5185938
   7.9934031  91.2020397  15.4764581   7.1426046  90.7634449  15.4746163
   8.0616438  91.5960312  14.6067750  40.4198503  15.3014493  13.9683270
  40.9070826  14.5365119  13.6622083  39.7579646  15.4498422  13.2929611
  23.8134027  12.1166742   5.3783470  24.7132611  12.2436357   5.6789631
  23.6151695  12.9066396   4.8754650  18.4681308  10.3868604  18.4038019
  18.3254039  11.0231113  19.1045487  19.3099344  10.6357217  18.0221379
  47.8836870   0.9925511  10.7323563  48.6868429   1.5105674  10.7855582
  47.2079325   1.6232339  10.4837036  81.4824867  73.6254549  77.4357843
  81.8772984  73.5018587  76.5726089  82.1731281  74.0322113  77.9590416
  78.4712124  60.7410240  90.2504921  79.2435503  61.2087965  90.5681610
  77.9693699  61.4027309  89.7745419 108.3593464  96.8162727  22.2292662
 107.8983498  97.1980953  21.4823174 107.7131462  96.8170929  22.9354262
  85.4125309 102.8334522  23.5633445  84.9086761 103.5435677  23.9609551
  84.7506809 102.2255802  23.2336903   9.8930256 105.5836001  15.2532554
  10.0547974 106.1533427  16.0052228   9.8185437 106.1827195  14.5104635
  27.1394396  21.1409640  42.6104403  28.0541778  21.3973403  42.7277327
  27.1833491  20.2854204  42.1834183  91.4208031  52.0200205  84.7349644
  91.8295193  52.7890301  84.3377113  91.6111088  52.1034288  85.6693459
  47.9650021  10.4546607  26.5607619  47.0689821  10.1180589  26.5700436
  48.0078411  11.0000682  25.7753134  18.3461797  12.8336620   2.1921855
  18.7578821  13.4017217   2.8433698  17.4400926  12.7471769   2.4884251
  56.9084787  19.3234885  30.4287219  57.5588751  18.9660418  29.8241997
  56.8183374  20.2403212  30.1688695  54.2435980  92.5297642   8.7386811
  54.2975473  93.1722832   8.0312258  53.5584974  92.8663826   9.3162215
 107.9239368  64.1274643  22.3327231 108.5348034  63.9377928  21.6206193
 107.7860260  65.0734425  22.2844005  20.0657892  94.7735786  39.6554136
  20.5709577  94.4877815  38.8942575  19.5484746  95.5127811  39.3357301
 105.0921249 102.9749680  26.5302157 105.1007271 102.0377731  26.3357306
 104.5627975 103.0499649  27.3242021  21.1929107 104.6947002  19.8227561
  20.2649021 104.6302414  19.5971990  21.6381311 104.1701031  19.1573131
   1.0742752  85.6997395  53.9902067   1.5441605  85.6099796  54.8192930
   0.9733291  86.6443825  53.8731670  94.9942780  52.5683689  91.3333416
  94.6170330  51.7322350  91.6068363  95.8570099  52.3401022  90.9872055
  70.5829763  67.7208948  17.4777162  70.8132553  66.9018602  17.9163277
  70.5048084  67.4839544  16.5536058  44.4158983   7.0697892   7.5846750
  44.7185373   6.2313360   7.2359097  45.1729012   7.4216318   8.0530608
  65.1348877  86.0288334   6.9105983  65.2002668  85.9388638   7.8613150
  66.0405779  85.9890366   6.6034025  47.4033403  13.3762133  39.0635753
  47.6766205  13.8887155  39.8244238  47.1379662  12.5312674  39.4267201
  10.1411486  96.4868832   5.4895276  10.9785140  96.9471550   5.5460715
  10.3620982  95.6323051   5.1192313  14.5196521  32.8921461  27.1894526
  14.2871666  33.5761809  26.5615368  13.6937773  32.6717496  27.6202536
  29.3706369  17.7135813   1.3351576  30.1615143  17.5524426   1.8497229
  28.7862825  16.9899106   1.5611345   1.6813448 103.4128857   4.8855817
   1.4495765 104.2480946   4.4794452   2.2683369 102.9948997   4.2555317
  98.9770603 100.2007580   2.5586030  99.0242195 100.1470089   3.5131282
  98.7347794  99.3174267   2.2806512 106.3321114 104.1818905  29.8864698
 106.7189789 103.6352825  30.5704117 105.5181122 103.7348938  29.6544600
   5.6396925 102.3027134  22.9126573   6.3056660 101.7289257  22.5338697
   4.8317507 102.0647621  22.4578619  26.1252022  27.1898556   4.2717937
  25.5639720  27.9246163   4.0240437  25.5399299  26.5841055   4.7264943
  46.5759373  47.7767849  86.6614914  47.1598387  47.2341490  87.1914291
  47.1282625  48.0971909  85.9483910  19.1749835   5.9220922  47.1757317
  19.4530129   6.8372917  47.1391058  18.2196796   5.9599274  47.1288919
  71.2903738  52.2197962  91.4431667  71.1004543  52.0664787  92.3687267
  70.7502556  52.9747820  91.2096977  59.7983074  10.4159570  40.8652115
  60.2307463  10.8420205  41.6052771  59.9373055   9.4804698  41.0127783
 110.8277893  28.0338025  18.7748528 109.8805809  28.1607080  18.7207401
 110.9726620  27.6833129  19.6537149   3.9332753  32.1758318  63.0821228
   3.4689337  31.3617158  62.8876162   4.1614640  32.5324011  62.2236252
  11.7967463   9.2150164  30.0772166  12.5160241   9.2542082  30.7075620
  12.2247565   9.2608166  29.2222667  80.6383896  61.6061592   8.8034928
  80.9581470  62.0953751   9.5615530  80.1634979  62.2542048   8.2831597
   0.7373663  84.6383190  25.5800271   1.3439842  83.9139557  25.7334733
   1.1493418  85.3900528  26.0059404  30.6999588   9.6088547  13.3997333
  30.7363224  10.1941216  12.6431799  30.9684157   8.7566334  13.0563939
  40.3394270  43.6770678  76.2517786  40.9163094  43.6677217  77.0155525
  40.3850603  42.7855825  75.9062290   3.0469632  84.8200893  31.6378498
   2.9787496  84.3953037  32.4929166   3.9606139  84.6958160  31.3808823
  40.3790665  24.4957089   9.1505963  39.9417996  25.1591682   9.6843094
  39.7510314  24.2942786   8.4568900  47.9175615   1.6095312  13.5270131
  47.9651356   2.5536364  13.6774588  47.9024792   1.5192920  12.5741947
  25.3930306  97.4412727  30.0923848  25.6694555  97.9415417  30.8602071
  24.4707966  97.2430611  30.2549601  53.5948992  21.5645242  17.3858905
  53.7981653  20.7125282  17.7719164  52.7074575  21.7585826  17.6875877
  39.0732455  15.6568182  45.3701591  38.9294124  16.5405667  45.0317335
  39.4849896  15.7912922  46.2237501  97.6382828  74.5172215  53.3736134
  98.2970333  74.4685030  54.0663624  98.1390762  74.7042465  52.5795984
  37.9387355  16.6985273  12.4748230  37.6516104  15.7855153  12.4889648
  38.3046222  16.8209982  11.5988326  43.9187145  20.9268618  56.3762188
  44.8387337  20.6970406  56.5065336  43.5700178  20.2203083  55.8326912
  65.8653355  79.7812700  16.9166458  65.6423283  79.1533995  17.6038718
  66.7407799  80.0904179  17.1495688  86.5610409  76.0206890  86.8213463
  87.0684719  75.8444023  86.0290909  86.9359398  75.4368496  87.4807549
   5.5473369  89.3894100  16.7647028   6.0227996  88.6032772  16.4960623
   5.9041423  89.6021461  17.6270616  12.1237648  32.7355695   2.8612140
  11.7699027  32.9107547   1.9892490  13.0709970  32.6911092   2.7307984
  18.5111642  91.8805885  79.7918463  19.0272892  91.1302948  80.0866604
  18.9261043  92.1495438  78.9722633  89.9706650 101.5291882  26.9481921
  89.8636436 102.3112106  27.4896932  89.6234894 101.7810535  26.0924649
  62.0285511  16.2092245   4.1836527  62.3475409  15.7335877   3.4166801
  62.6155424  15.9434867   4.8915026  74.5132732  19.0805018  77.7255011
  74.4988441  19.6973395  78.4573030  74.8081684  19.6016693  76.9787407
  98.8330078  97.4624825   1.2998304  98.2125378  97.9761887   0.7827646
  99.3463135  96.9822216   0.6501324  67.4759531  64.6303558  82.6988506
  68.4264040  64.7236681  82.6343441  67.2197247  65.2533674  83.3788776
  32.3156309   3.1771266   2.6605102  32.5851631   2.2811922   2.8627118
  32.3585057   3.6353368   3.4998178 106.7250729 102.6314640  16.3404644
 106.9709873 102.4684143  15.4298735 106.9839668 101.8354034  16.8046856
  75.8712673  92.2253990  57.4412870  75.0318384  92.6496315  57.2634697
  76.5183306  92.7857399  57.0128489  51.8915653   4.9836966  23.3931184
  52.5259924   5.2879411  24.0420961  52.4267101   4.6583894  22.6692176
 107.6414776  11.2109172  23.9949703 107.5052261  10.6849289  24.7830081
 106.8523121  11.7482388  23.9262342  72.2861719  94.8887348  20.1812100
  72.5601721  94.4966316  21.0103106  72.8510857  95.6548405  20.0803161
  74.4248819  74.1845703  58.6921358  74.5592499  73.8275290  57.8142405
  73.5414410  74.5522690  58.6685228  78.2791376  84.1831398  21.4806747
  79.0412807  83.6233521  21.3323307  77.5347519  83.6562443  21.1899781
  11.1145592  84.2945385  11.2424302  11.1449075  84.0028763  12.1536064
  10.2151275  84.5973587  11.1177099 104.8423290  70.6171370  15.5495095
 105.7987499  70.5829954  15.5678797 104.6405506  71.4426088  15.1089251
  97.0672321   9.4944459  14.5667386  97.8049183   9.4911927  15.1766872
  96.4912796  10.1867414  14.8911369  13.5984504  20.7663274  22.1859455
  13.7957048  19.8403394  22.0449853  14.3813360  21.2266994  21.8836570
  37.3067641  95.0922775  13.4590065  36.6411352  94.7099209  12.8871918
  36.9714022  95.9642887  13.6672378  66.6823626  45.9657526  19.8903275
  67.4543953  45.4413557  20.1029491  66.9879389  46.5834904  19.2260587
  83.5669899  49.3437910  83.7575245  84.0309429  50.0282335  83.2753181
  84.0214539  49.2932129  84.5984364  18.4917653  20.6336522  21.8681765
  17.5593984  20.6201530  21.6519785  18.5162401  20.6072474  22.8246999
  42.1343513   0.7569474   7.1872103  41.3347299   1.2296933   6.9562376
  41.8418114  -0.1376086   7.3616117  57.0616245  13.3328569  24.7370625
  56.6422367  12.5754201  25.1452708  57.1148157  13.1057692  23.8087130
  25.7634497  89.0060711  14.5135260  25.4564261  88.4943771  13.7651026
  26.3853693  88.4302807  14.9583924 104.0051651  68.2626820  85.4674625
 104.8001766  67.7997589  85.7318306 103.4565735  68.2637501  86.2518597
 111.7864323  13.4345341  47.1755171 111.5929604  14.2333126  47.6661825
 111.8687057  12.7558863  47.8455162  82.7960968  89.5457363  18.3929133
  81.8869972  89.6007252  18.6874413  82.7461529  89.6438122  17.4420607
  55.9462309  39.3285728   6.5642220  56.4242458  38.8360119   7.2313935
  55.0435114  39.0191412   6.6389245 103.7022591  92.5670052  31.8648911
 103.0634689  91.8699932  31.7153645 104.2307091  92.5827885  31.0669422
  88.7987232 103.9620113  31.8632984  89.0479469 104.8062611  31.4873123
  89.2597389 103.3160210  31.3281369  79.6667385  28.9831066   3.6520496
  79.9253511  29.8978591   3.7642041  79.9502325  28.5533929   4.4590247
  21.5993667  84.0432549  26.5934539  21.4363432  83.4230232  27.3040605
  21.6614199  83.4980202  25.8091688  93.0958748  71.2220192  68.7666178
  92.8256798  70.3856277  68.3875704  93.6577702  70.9808540  69.5030594
  19.7463155 101.5166473  28.3924675  18.8892663 101.2751007  28.7436867
  19.6022081 102.3637009  27.9706097 111.4875698  99.2770958  27.5702715
 112.1484947  98.8802338  27.0028996 111.8174648 100.1591492  27.7416682
  79.6869850  78.0424881  11.8100953  79.5839024  78.9861250  11.9332111
  78.8119984  77.7348232  11.5734971  12.1593857  92.5216293  11.0451305
  12.5643957  92.6315498  11.9054306  12.8192759  92.8371048  10.4276729
  59.5859241   4.5260167  10.3206623  59.0782785   3.7607798  10.5907345
  60.4612875   4.3699953  10.6750953  93.5322094  82.1535873  39.6027994
  94.1598225  81.8017578  38.9714932  92.7048588  81.7259693  39.3817568
  22.8060269  16.0565948  20.7882428  22.5528216  15.3562808  20.1868439
  22.0510054  16.6447890  20.8024025  17.4470091 100.0314236  29.4074488
  16.7874813  99.6697998  29.9994659  17.2922885 100.9758759  29.4247365
  46.5398502  17.4757469  18.3804035  47.3622608  17.7021933  18.8146770
  46.7846298  17.3254061  17.4673247 108.4651947  76.2623024  21.4974141
 108.1690025  75.8524370  20.6846976 109.0781307  76.9406986  21.2139964
 103.0367661  76.4485550  26.7653108 102.3964405  77.1600389  26.7636919
 103.0130863  76.1029768  25.8729839  48.5208702   4.8801193  21.9415808
  47.7076054   4.8122939  21.4413476  48.3226442   4.4609690  22.7789879
  22.6142740  16.4728904  16.0848153  21.8383503  16.4768636  15.5243158
  22.2888637  16.7344177  16.9461775  17.8021002 101.4871407  55.9769583
  17.1391857 100.8452225  56.2313557  18.5834169 100.9651279  55.7945442
  74.3339491  42.5976801  76.4028502  73.7946224  42.7758503  75.6323862
  73.9677620  43.1587315  77.0864868  55.3512907  74.5056677  71.5435505
  54.6095896  73.9113331  71.6570473  56.1164427  73.9819098  71.7811489
  24.8771214   0.7433188  35.3263402  25.7837462   0.6171200  35.0464487
  24.5056581  -0.1387595  35.3399181  86.5739918 101.4936256  27.2581005
  86.8928146 100.6621361  26.9070673  86.5607929 101.3639450  28.2063818
  37.5235343   7.0881611   4.1369122  37.7797461   7.9894072   3.9410993
  37.8213930   6.5845138   3.3793828  50.4500628   2.9018527  24.3458366
  50.9091330   3.6652595  23.9955568  49.5518827   3.2037887  24.4812489
  83.7831020  96.2710190  11.7858303  83.5944271  96.6451454  12.6464462
  84.7388554  96.2444973  11.7404985 103.5356617  85.6538486   7.4756914
 102.9255676  85.8714390   6.7709392 104.3707180  86.0268879   7.1932828
  29.7151566  78.2752323  22.0013976  30.6716156  78.2875586  21.9658279
  29.4412255  78.8350868  21.2749290  53.5345554  33.1882977  86.8014240
  54.0642214  33.3837533  86.0284519  52.6362705  33.1505919  86.4729500
  60.8873415  38.5264039   4.3635294  61.5291119  38.9918923   3.8271675
  60.1399708  39.1223335   4.4139013  40.5803490  24.0896130  48.7813711
  41.2108421  23.5390496  48.3170557  39.9388289  23.4733367  49.1347599
  22.4156427  74.2260885   5.4079854  21.7591310  73.9299297   6.0384750
  22.5141454  73.4917259   4.8019814  53.1491518   2.9157484  46.3676882
  53.6990881   3.5623544  46.8100691  52.3836231   2.8241533  46.9349718
  52.6075554  38.2876229  80.7001209  52.9174852  37.4956489  81.1393833
  51.6686010  38.3119273  80.8845139  72.1436548  35.5264974  76.7378998
  72.1392250  36.4668155  76.9168186  73.0714893  35.2964473  76.6885614
  20.6231666 102.0558834  49.7787189  20.0416589 101.6066265  49.1653252
  20.0351691 102.4366474  50.4310274  43.8721275  49.0700483  19.4306290
  44.8198318  49.0302229  19.5590770  43.6718416  48.3079243  18.8872278
  42.0186043  20.0927997  35.5410576  42.5134706  20.5557275  36.2171054
  41.5237665  20.7794452  35.0939727 109.2734337  13.2866979   1.8385620
 110.0034332  13.9056253   1.8545803 108.4914589  13.8377488   1.8714519
 107.1473980   9.1425788  87.2810841 107.0901299   8.9116585  88.2082462
 107.5729465   8.3888590  86.8723774  65.7065058  29.2390347   3.6398217
  65.8134174  28.8036299   4.4855317  65.2079487  30.0313306   3.8396665
  32.1751595  74.3735456  89.5387363  32.0111179  74.5911551  88.6211491
  33.1127095  74.5259237  89.6571159  70.6417179  47.8681898  88.8897800
  71.3549662  47.3231506  89.2221165  70.7971239  48.7290812  89.2782974
  94.6941853   7.2932744  89.0455055  94.7850227   6.3467431  89.1553211
  95.3672314   7.5258744  88.4058762  31.5693164  24.7756672  16.0438550
  31.4814782  25.6973672  15.8009899  30.6963038  24.5228553  16.3441348
  50.1700830  11.5282524  41.5375519  50.7074118  11.8738592  40.8247614
  50.1027346  10.5912173  41.3540840  20.4207778  16.0076773   1.9534898
  20.1105142  16.5929437   1.2625259  19.7007918  15.9781229   2.5835508
  28.0291176   3.9487544  10.7849908  27.1350479   3.6077344  10.8089650
  28.1807876   4.2854747  11.6680801   1.3702257  60.8864069  29.6553063
   1.2302620  59.9743271  29.4008350   0.8152266  61.3892508  29.0591908
  25.2043891   4.2385298  33.7529039  25.5517292   3.9450347  34.5951915
  25.1428294   3.4404513  33.2280111  29.0896177 101.1848259   5.3814405
  29.5972919 101.8785191   4.9603763  28.1769609 101.4362907   5.2398103
  87.0399666  11.5872920  47.1673441  87.7453518  11.0298657  46.8387938
  87.4194336  12.4657869  47.1893597  41.8559551  45.9991217   5.6732774
  42.0413685  45.2312756   6.2138969  40.9967613  45.8209419   5.2908206
  36.2880993  97.5698185  14.4777548  35.7885075  97.9594994  13.7602663
  36.3501787  98.2657433  15.1320291  22.7850032   5.2446258  19.6123517
  23.6185837   5.1415640  19.1532731  22.9409528   5.9541625  20.2356243
 110.2556515   6.4771062  79.4519854 109.8259354   7.2910661  79.7147465
 109.5764446   5.8084190  79.5401096  73.9551258  75.3311443  83.3424377
  74.3288326  75.9966850  82.7648354  74.6425486  75.1591635  83.9859486
  18.6607325  31.9806671   9.8543423  19.4499719  32.2285414  10.3358948
  18.0539906  31.6764307  10.5292761  63.0756426  41.2647724  26.9955492
  63.0738258  41.9573975  27.6562309  63.9367819  41.3298273  26.5827036
  62.4570799  60.3295183  87.0226383  63.1058645  60.4819775  86.3355732
  61.6180134  60.3208065  86.5620708 108.0796623  95.2863884  14.1275322
 108.4844780  95.7193089  13.3759105 108.7251949  95.3713417  14.8291707
  41.5143776  20.7245636  24.9072480  42.2597027  20.5886674  24.3222237
  41.8507385  20.5103326  25.7774186  26.0822248   5.3035641   3.6920902
  26.4942241   6.1075115   4.0085670  25.3543401   5.6053472   3.1486368
  92.5943089 104.1378880  31.6490173  91.9170475 103.4859848  31.8294454
  93.0265236 104.2739010  32.4921846  47.4600077  32.4572420  37.4437690
  47.3524141  33.0545402  36.7035723  46.6843605  31.8971252  37.4142647
  75.3477716  51.9936228  89.6019173  76.0837603  52.4950027  89.2509556
  74.5858717  52.3193264  89.1227055  49.6807528  24.0880060   2.3606130
  50.0506306  24.4258976   1.5449843  48.8707018  23.6531711   2.0942095
   6.4970326 105.3831196  29.4057083   6.2039602 106.0940742  28.8357186
   6.2631375 104.5847130  28.9323401  19.2947376 100.8046436  33.5669422
  18.4681654 101.2860107  33.5309005  19.1143334  99.9842262  33.1080246
  31.7674136  30.3779387  41.1719322  32.0862913  31.2804341  41.1648703
  32.4120188  29.9002337  41.6939592  84.9106503  11.5363145   9.5457226
  84.2941952  12.1210456   9.9865168  85.6022835  12.1151388   9.2250419
  37.8925061  17.0859694  32.6607442  38.6868334  17.5769424  32.8710246
  37.4433970  17.6246274  32.0092964  71.0120344  60.1242542  80.0187492
  71.4185190  59.9022913  80.8564377  71.4085102  60.9604692  79.7742462
  94.7771358  36.7671490  20.5214882  94.3779755  37.2879839  19.8246098
  95.6791210  36.6305065  20.2317071  49.4731998 105.0945091  11.6764927
  48.6460400 104.8355675  11.2703001  50.1101589 104.4597626  11.3484550
  51.7157364   6.9402319   0.6404927  51.9164181   7.8580713   0.8235998
  52.5639343   6.4980084   0.6754933  74.0285206  86.5359020  69.8234034
  74.5012665  85.7413387  69.5756054  73.7605619  86.3824558  70.7294321
  56.4395571  21.6590405  28.7139106  57.0614576  21.9983792  28.0702329
  56.0524988  22.4406791  29.1081905  57.4294901  15.7556415   7.2864079
  57.9644537  15.0956011   7.7273107  57.8749752  15.9072483   6.4528668
  26.0738945  92.7360058  27.4155831  25.1281309  92.7401829  27.5630474
  26.3727593  91.9123840  27.8010130 109.1646576   3.2354239  81.8494034
 108.2930851   2.9953036  82.1639442 109.0797520   4.1512886  81.5844250
  16.1150420  24.2053032  42.7572393  15.4823267  23.7431574  43.3070803
  15.6557631  24.9970794  42.4772739  32.5437307  31.1409974   7.1744108
  31.6676855  31.2022042   6.7935854  32.6530671  31.9605947   7.6566339
  43.7774372   8.9710671  44.1813135  43.4197855   9.7979033  44.5048237
  43.1332922   8.3129722  44.4425011  54.0840578  10.5306399   7.4938619
  53.9068556  10.8119869   8.3914560  53.9907932  11.3266611   6.9705230
  63.3982372   2.4954382  44.9326181  63.2558775   2.5020143  43.9860868
  63.1127691   3.3614418  45.2237797 111.9976330  90.4357624  21.9109154
 111.7741680  90.3893089  22.8405046 111.3796043  89.8410320  21.4859915
  60.3749561  10.7368553  19.0000188  60.3548956  11.5965796  18.5796583
  59.9926615  10.8842444  19.8650956  20.6745315   2.6977351  10.4784369
  21.1958003   1.9668098  10.8104897  21.2080693   3.0738550   9.7783625
  23.0237889 100.7897186  42.8167868  23.2086611 100.9702396  41.8951178
  22.1570230 101.1675739  42.9656792  44.7554445  11.5823948  14.7271991
  44.8292780  11.5927696  13.7729073  45.5562782  12.0075405  15.0340271
  65.2531528  47.7496958  88.0119514  65.9540510  47.5852871  88.6427784
  64.4466162  47.6169348  88.5100460  29.3477988  18.6562991   4.7329599
  28.4820843  18.7608135   4.3381834  29.2344880  18.9448607   5.6385672
  91.9034576  90.1131725  89.7952557  91.9659424  89.1751862  89.9755764
  91.2780285  90.1771641  89.0734673  19.3013093  28.3500497  -0.1583210
  19.7365091  29.1541307   0.1250157  19.5433757  27.7011030   0.5023655
  18.8870597 102.4528694  45.2138948  18.7882400 101.8060112  44.5152903
  19.3233168 101.9772148  45.9207678  28.8087583 105.0567055  -0.1013828
  28.5300779 104.2454624   0.3234139  29.1348481 105.6021309   0.6144486
  60.0012445  65.1344776  90.0621605  59.1912985  65.4754877  90.4415417
  60.4626465  64.7366858  90.8004665  50.0065374  23.5765576  20.1427913
  49.4732285  22.8262782  20.4052687  50.0442219  24.1285872  20.9238648
  62.1605682  13.6551690  46.6922379  61.3971090  13.2979643  47.1458483
  62.8520346  13.0106986  46.8431187  85.6535339  60.3665972  68.5269737
  86.0884953  61.0711718  68.0467558  85.4907990  59.6921873  67.8674889
  81.3964939  18.1243789  19.1139817  80.7275677  17.8048408  19.7195101
  82.1924973  18.1778002  19.6429026  71.8720388   7.9467607  33.9830494
  71.1779594   8.5334045  33.6824870  71.4296961   7.3331106  34.5695639
  72.8840780  20.0188947  52.2960520  73.2772446  19.4825709  52.9845333
  72.4998379  19.3859601  51.6894341  20.1405835 103.3099174  10.6807661
  19.9937022 102.9669666  11.5622640  21.0931087 103.3460140  10.5934429
 106.0348232  70.7536386   0.6377300 106.3619526  70.1936231  -0.0662628
 106.2385376  71.6435860   0.3501019  63.1516123   4.9347693   4.8657000
  63.6566591   4.8757997   5.6766742  63.7981939   4.8090345   4.1711858
  68.2166719  55.9067822  81.4769363  67.6822042  55.1211023  81.3616562
  67.8572989  56.5349627  80.8504581  86.7762852  66.3287258  80.6473923
  86.8313599  67.1718693  80.1975918  87.6671410  66.1632347  80.9559631
  36.8055820  16.9033110  27.5227857  36.3990402  17.3802602  26.7992687
  36.6509080  17.4545038  28.2899189  53.6937475   9.4005996  16.8845868
  54.0506840  10.2169347  16.5346944  54.1161203   9.3007517  17.7377367
  29.0902352  19.8300934  24.2984915  29.6077013  19.4667459  25.0171304
  28.5815406  20.5336881  24.7015023  67.9401493   7.0994383  34.0360618
  68.5692644   6.6112363  33.5049248  67.2863245   6.4486521  34.2914486
  60.6545115  10.1067805  27.3018336  59.7467375  10.2655768  27.0430636
  60.8184671  10.7396448  28.0009985  98.8101292  21.5249968  54.0658712
  98.9130878  20.7431579  53.5233212  99.3069077  21.3319087  54.8609591
  74.6536922  83.3269596  89.9077511  73.8030005  83.2309055  90.3359222
  74.8837042  84.2472553  90.0357723  68.0540848  14.2466009  19.1573083
  68.6375046  13.8602650  19.8104501  68.1322098  15.1906323  19.2949057
  54.9558783  34.5657396  24.4149518  55.0244284  35.4262376  24.0013361
  55.5278397  34.6216941  25.1804328  40.7064962  14.8472631  58.8673544
  40.5024767  15.7786715  58.9515305  40.4801321  14.6333361  57.9622412
  35.3442144  81.0698223  36.1192369  34.8466468  81.0566330  36.9368458
  34.6777105  81.1198044  35.4340315  20.2885477 105.8343875  79.7450495
  20.3052800 105.1686748  79.0574598  21.0490219 106.3863189  79.5626116
  32.1824551  19.1883445  84.5323849  32.4540448  19.5302522  85.3841877
  32.9279947  19.3593073  83.9569092  10.0942421  45.9940958   4.5405453
   9.7219956  46.4711952   5.2821940  10.4694366  45.2034760   4.9283379
  69.0737534   1.4924283  68.8405275  69.4057608   1.1144783  69.6548700
  69.7762346   1.3494666  68.2062435  71.2251759  33.0236506  75.3158045
  70.4710054  32.5240159  75.6285763  71.2098885  33.8291454  75.8326960
   1.5414338  57.1827841  20.0343156   1.6631411  56.9168425  20.9457397
   2.3083338  57.7206326  19.8373044  98.7456989   7.8950280  64.1813326
  98.7498951   7.4021548  63.3607864  97.9369545   7.6270115  64.6175861
  19.2874575  64.4189405  16.8858385  18.6266243  65.0967598  16.7440867
  19.4002378  64.0111065  16.0272455 100.9404373  46.8026209   4.1151735
 101.4308739  46.6869307   4.9290043 101.0772514  47.7207279   3.8815287
  17.6668286  25.3236079   0.3186331  18.5015142  25.6151152   0.6854518
  17.4202275  24.5694709   0.8540747 109.9847984  93.9804840  78.0748367
 109.7146511  94.8309422  78.4212065 110.1335335  93.4416771  78.8518810
   3.9263260  95.3580284  70.4753542   4.6238792  95.3472805  71.1307478
   3.4587809  96.1775589  70.6366205 104.7844124  30.9441185   9.9539971
 105.0770187  31.6385841  10.5441964 105.4997540  30.8467579   9.3254727
   3.7074679  49.5719290  20.2778006   3.5073459  50.0479650  21.0837603
   4.1905883  48.7989330  20.5698681  85.7778835  92.2454453   8.8763261
  85.1896381  91.5166473   8.6787039  85.6477070  92.4119473   9.8099011
 111.6969776  41.3560247  21.4137173 111.9107246  42.1413898  21.9174528
 112.5301933  40.8928871  21.3271236  37.9989290  17.5653398  77.6943445
  38.6366391  17.5328243  76.9812536  37.7020264  18.4752142  77.7088404
  81.1516953  69.9446630   9.7571272  81.9510365  70.0395250  10.2750885
  81.1085892  70.7453585   9.2343837 109.6758747  96.4791298  88.0453873
 110.0173283  97.2601128  88.4809303 109.5054245  95.8628559  88.7576962
 100.2952957  67.7661562   6.4257443 100.9016705  67.5155640   7.1226966
 100.3476715  67.0493793   5.7935095  57.5140524   1.2146173  76.6717291
  56.8124771   0.5644861  76.6349316  57.6038027   1.5214685  75.7695007
  12.1865380  85.7741261  34.8029852  12.4162722  84.8453999  34.8331332
  11.4301980  85.8527660  35.3843617 108.5915661 103.5477257  87.8089523
 108.0801010 104.3277931  88.0237198 109.4646263 103.7306881  88.1561089
  63.4921265  15.5093479  86.0281944  62.7879715  15.3227091  85.4072571
  64.2778015  15.1529241  85.6135845  72.7246904  19.5635533  59.8518944
  73.2414103  19.4887471  59.0496254  71.8665504  19.8678768  59.5565748
  21.4797688  24.4339395  51.7328119  21.7582607  24.7037816  50.8576775
  22.1449566  23.8050532  52.0125532  68.0133390  21.9964147  89.5751476
  68.7545538  22.5257564  89.2808151  68.2969809  21.6324544  90.4137897
  70.1742268  80.0185013   4.9349093  69.4317245  80.3136921   5.4619592
  70.3483677  79.1292334   5.2433133  31.3414574  19.9681342  91.2530231
  31.6640997  20.1151752  90.3639126  31.4523506  20.8121538  91.6907024
  46.4353609   6.4656007  87.5570011  47.3710966   6.4382797  87.7567005
  46.3884497   6.8490779  86.6812325  95.9940720  69.7396803  17.7759778
  96.4254570  68.9743471  17.3959661  95.9178638  70.3573751  17.0487380
  92.1851254 100.9033489   9.9836034  91.4713764 100.2903843  10.1598704
  91.8415928 101.4815235   9.3024784  45.5441618  55.3181744  86.5126705
  44.6263981  55.5849934  86.5650558  45.7191133  54.8956013  87.3535347
  50.3639936  20.5161643  74.5956612  49.7429085  20.2544403  75.2753544
  49.8159695  20.8578992  73.8891792  -0.2457257  91.7709923  31.4907837
   0.5555432  92.0777321  31.9151783  -0.2886919  92.2669601  30.6732273
  88.6756992  92.0086670  10.1398945  89.3669224  91.6058636  10.6654358
  89.1345787  92.6351643   9.5802891  12.2582173  63.9542627  20.8848071
  11.8371332  64.8129606  20.8453083  13.1953681  64.1478634  20.9071970
  26.5898132  83.3863735  70.2603388  26.9229364  84.0250492  70.8906984
  26.4136958  83.8983536  69.4709778 101.0902119  63.1875944  15.0210059
 101.0721684  64.0274954  14.5622337 100.2264690  63.1182098  15.4276693
 101.6284657  63.8407278   9.4592011 101.3052177  63.3674717   8.6925364
 101.1778164  63.4340191  10.1992965  92.9601192  92.7837944  24.6995115
  92.4501801  93.4898090  25.0966668  92.3288536  92.3055267  24.1619325
  44.4575739  16.2946820  47.8727674  43.9782095  15.6358874  48.3751917
  45.2156115  16.5065336  48.4175014  92.6518631  76.2987852   6.7507601
  92.9644871  77.0068502   7.3139173  93.4489441  75.9066153   6.3942569
  43.3444643  91.5697575  85.2321911  42.4985266  91.2866020  84.8851395
  43.2540941  91.4859772  86.1814213  89.9472141  86.8481731  35.6447840
  90.4475975  86.2326050  35.1091242  90.0980949  87.6999187  35.2349186
 104.6813965  84.9128246  23.8463163 105.1904297  85.6727600  24.1284776
 104.0002823  84.8200417  24.5124316 111.5208530 100.7536888  91.3468552
 111.9278049 101.2076855  90.6089497 110.8256245 100.2282619  90.9508705
  36.1665487  29.8318124  89.1703510  36.0195780  29.2739367  88.4065437
  36.2617064  30.7129169  88.8086510  81.0057926  36.3770866   4.1019934
  80.6844139  36.3919330   3.2004786  81.8060684  35.8534217   4.0623918
  32.3240733 100.1573563  60.1647758  32.4853349 100.7156658  59.4041729
  33.1030655 100.2651405  60.7104731  79.8043251  97.5362682  26.9566011
  79.8615503  96.5813923  26.9908190  79.1552114  97.7613449  27.6230979
  18.0122828  54.1718102  36.2593508  17.2434890  54.3947601  35.7344866
  17.7843153  54.4475222  37.1471834  54.1594458  29.0109873  81.6231251
  53.9949274  28.4519267  80.8637714  53.7122774  28.5708284  82.3459816
  51.2689972   8.9116019  66.8990231  50.6915140   8.5988104  67.5953770
  50.9574747   9.7965050  66.7089367  90.3358364  72.8924227  24.8300624
  89.6902847  72.1873569  24.7812128  91.1669922  72.4454927  24.9902868
  49.2804575   7.9361641  73.1591654  50.1039696   8.2717174  72.8049564
  49.1348982   8.4492248  73.9540339  84.9780178  23.0856872  83.3131313
  84.3907928  23.7237859  82.9078865  85.8563614  23.3881831  83.0823898
  72.9838610   1.8963090  62.2320461  73.2236338   1.8403259  63.1570387
  72.1570492   1.4180681  62.1695757  28.7645268  62.8179884  67.4181747
  29.3646979  62.5625658  68.1187344  29.3354058  63.0373430  66.6818237
 107.5573540  49.8741817  22.7759171 107.9590321  50.7349157  22.6574898
 107.0314693  49.9626064  23.5708117  63.3799076  57.8780794  21.8536806
  63.3375120  56.9647455  21.5703869  63.1645012  57.8499460  22.7859020
  67.9454470  98.5912418  56.3163233  67.2395039  98.2069302  55.7965422
  67.6398563  98.5255051  57.2210455   2.2974537  22.4043465   7.7937353
   2.8682324  22.0323277   7.1213913   2.0075282  21.6496444   8.3061802
  91.4917660   7.2167760  62.0318890  91.3839626   7.0813012  62.9732990
  92.4394608   7.2200853  61.8973589 108.3795929  94.8106861  90.0354767
 107.6752186  95.2176571  89.5310307 107.9596806  94.5272255  90.8475971
  28.0148339 100.4956055  84.6777439  28.6039329 100.6136513  85.4229069
  27.7692819  99.5710278  84.7106743  86.4101315   0.1656233  74.1511726
  86.0316563   0.3129619  75.0179338  87.0696545   0.8530441  74.0577984
 104.9618244  98.6367035  10.5286944 104.5175838  97.9473686  10.0350332
 104.2561436  99.2107964  10.8264720  65.3970480  11.8078578  77.3104572
  64.4656849  11.6266870  77.1840811  65.4582644  12.1317506  78.2091093
  31.7025280  43.2312870  70.7429552  30.9129381  42.8069687  71.0787106
  31.9604254  42.6971912  69.9916458  16.7956114  65.6834126  13.0793726
  16.8274856  65.3396749  12.1865904  15.9157789  65.4670143  13.3880734
 111.5236473  14.0500462  13.8767147 111.2832165  13.4334314  14.5682418
 111.0184193  13.7649739  13.1153321  98.4765816  79.1582823  14.4142437
  98.6600018  78.2188225  14.4169056  97.9615402  79.2995119  13.6198759
  13.4703588  56.4008808   5.1589584  13.5837603  55.4869747   5.4200125
  13.5170722  56.8918657   5.9793133   4.0637010  90.4699707  11.9596672
   3.6611384  90.4335403  12.8273356   4.3280390  89.5676708  11.7801917
  99.7752953  91.3814735   5.2231443 100.5296898  91.5545082   4.6599621
  99.7421646  90.4273796   5.2927053  86.7233372  36.6340756  11.3047779
  85.9360600  36.2819290  11.7200172  87.0941353  37.2269177  11.9584417
 102.0476532  33.1330180  12.5519180 101.9221592  32.2459221  12.2149539
 101.1604500  33.4744048  12.6639616  18.9699769 103.1537247  68.0767488
  18.9237857 103.0595779  69.0281868  19.3541241 102.3312664  67.7730513
  74.5754814  71.8269634  19.7469819  74.2886162  71.8964005  20.6575394
  73.7806940  71.6055202  19.2616916  95.7453251  78.6423922  36.4741945
  96.6458130  78.9471245  36.5859747  95.5077171  78.9170694  35.5885744
  25.5306506  83.1096458  16.4148283  25.2260399  83.9934540  16.6205883
  25.5580783  83.0823612  15.4584098  70.5708742  16.1242962  74.9135113
  71.0714579  16.4686310  74.1738653  70.3747988  16.8932593  75.4487514
  53.1946039  13.3357406  76.6770554  52.6033354  13.0335295  77.3664761
  52.6736879  13.2851899  75.8756018   1.0375208  75.8289957   8.7723702
   1.1120616  75.3911829   7.9244334   1.9010732  76.2148476   8.9194340
  22.8336692  54.8796225  30.4093432  22.0106912  55.3011656  30.6568074
  22.6297808  53.9444590  30.3978419  34.4299674  25.8644962  59.9870110
  35.3778315  25.9918976  59.9475622  34.2279720  25.8575606  60.9226322
  14.7087491  75.2210808   4.9876109  14.5793641  76.1677170   4.9295542
  15.4186571  75.0381756   4.3721354  75.6860542  27.0194983  15.5991030
  75.7748747  26.0756397  15.7312894  76.5841627  27.3499107  15.6205320
  48.5394192  25.0717854  69.5908356  48.8296604  25.7587481  70.1909018
  49.1436958  25.1292443  68.8507175  69.9851370  20.2586031  66.1956215
  69.4390869  20.7954550  66.7699528  70.8186197  20.7271552  66.1509085
 106.8916035   3.5723424   6.8288034 106.3191986   4.1883200   6.3714671
 107.6669979   3.5068426   6.2713915  89.1954231  98.2529640   8.7469989
  88.9209175  97.3630810   8.9683247  88.4002113  98.6750126   8.4218025
  99.9884892  53.2642603  27.9761314  99.7797871  52.7889967  27.1718931
  99.1386700  53.5439444  28.3164477  96.3656902  80.0213337  31.1713457
  96.2325287  80.0691128  30.2246571  96.5672779  80.9204483  31.4305401
  62.0640755  34.7082210  86.4067554  62.8506517  34.8378563  86.9365883
  62.3892927  34.6330309  85.5096436  67.3404789  23.1620955  85.8257866
  67.2785616  22.6360369  86.6230679  67.2696447  22.5266457  85.1134491
  14.1262686  76.2466860   0.4954895  13.4533918  76.3294220   1.1712290
  14.4108915  75.3344870   0.5513193  44.7512913  38.3784413  79.0570641
  44.7915983  37.4254060  78.9775085  43.9068270  38.5484433  79.4744492
  75.5692244  93.4186649  11.7836773  75.4139471  93.4868622  12.7257335
  76.3568354  93.9411545  11.6323113  53.3374357  12.8839660  71.3961506
  53.7985849  12.0604849  71.2366152  53.7981129  13.5251880  70.8550024
  92.1398067 103.9382267  14.5005882  92.1053410 103.8192654  13.5514343
  91.9026279 104.8556709  14.6357596  91.7751884  59.8352957   1.7157382
  91.1090088  59.4947863   1.1186647  91.6318417  59.3570185   2.5324014
  53.4805489  76.8910313  13.8298607  52.7675152  76.2714291  13.6752319
  53.3283949  77.5938129  13.1980586  87.9084587  33.8174248  88.8376427
  87.1829987  33.1939983  88.8735008  88.4476757  33.6014485  89.5984554
  98.0798244  83.6012745   9.8940223  97.9759216  84.4259644  10.3687012
  97.3579597  83.0541611  10.2035618  30.6830120  53.7191391  62.8693199
  30.8132768  53.2127857  62.0675278  30.1574302  53.1486416  63.4301472
  80.5585766  83.2393169  29.2225099  80.4756546  82.4887562  28.6342859
  79.6569490  83.4652328  29.4511008 106.7594242  73.5213041  51.6274881
 105.9514713  74.0345621  51.6297150 106.9987869  73.4474087  52.5513268
  77.2232342  38.1599569   2.0294832  76.5411711  37.6049113   1.6513954
  77.1457386  38.0248880   2.9739320  63.9261627  83.7736797  21.9472980
  63.3638525  83.2047939  21.4215517  63.3562279  84.0938282  22.6465178
 109.8842239 101.2851334  13.5148549 109.8931408 101.1721992  14.4653273
 110.7817841 101.0941792  13.2425380  28.7735462  91.7054081   2.5244907
  29.1445589  92.5744629   2.6772228  29.4168377  91.1017036   2.8959006
  42.2100115  59.4664621  41.9511890  41.3652420  59.6168804  41.5269613
  42.7997923  59.2329025  41.2343645  51.4570045  24.6073747  54.2622328
  50.9479523  24.1636324  53.5838604  52.3292542  24.7066498  53.8807154
  91.0652351  77.0430088  32.8908730  91.5925884  76.2545204  33.0190110
  91.6801834  77.6884079  32.5422716  24.0354443   7.8967208  82.3090553
  23.6074281   8.0857044  81.4739990  23.8358474   8.6553383  82.8575897
  55.3841066  19.3067741  68.5182953  54.7243071  18.6374950  68.3367538
  55.2408028  19.5419323  69.4350290  21.1613202   0.4846946  21.0656404
  21.7450476   0.8667728  20.4102683  21.7374158  -0.0368351  21.6245270
 101.3105297  78.3238316   9.1872811 100.4437923  78.1595373   8.8157964
 101.7630863  78.8400459   8.5202360  10.4090273  94.5317554  26.4197469
  10.1936769  93.9552975  25.6865716  10.9882438  95.1935863  26.0419512
  64.8475933  28.0084825  83.8560677  64.3875027  27.9226136  84.6910381
  64.5235968  28.8303089  83.4874725  30.5429006   9.0387541  87.4412251
  31.3278937   8.5482502  87.6849937  30.2028942   9.3742561  88.2707214
  91.5863514  31.2275529  27.0150638  92.2802162  30.6493711  27.3320723
  90.8567619  30.6402397  26.8176103  80.1097012  36.5048885  83.7335873
  79.7957182  36.5282416  84.6375275  79.4096661  36.0684800  83.2480717
  96.8567753  94.3888950  40.2474260  97.1560001  94.8379517  39.4568300
  97.1251488  93.4786892  40.1219893  77.3103094  24.3405890  87.4243164
  77.5064754  24.3119979  86.4878750  77.7386761  23.5631824  87.7826118
  98.1400204  44.6367264  75.6920958  98.4204006  45.0367165  76.5152788
  97.5048161  45.2543831  75.3298187   9.7636491  98.4732628  14.7537398
   9.2882013  98.9364147  14.0640461  10.3976154  99.1126823  15.0784993
  82.6442814  99.3982029  31.0627389  82.4275208  99.3675327  31.9945669
  82.3340893  98.5612583  30.7169986  28.3073997   2.4444573  90.6767464
  28.3058333   1.5112400  90.8896732  29.2254782   2.6477450  90.4977608
 103.1159687  64.3316078   3.1176877 103.8514805  64.6355057   3.6495709
 102.5105190  63.9403677   3.7474403  90.1208496  64.9314117   0.5758196
  90.6153870  64.1121101   0.5555137  89.3923473  64.7567415   1.1716375
  98.1603718   0.0747626  65.2756405  97.8848076   0.9462973  64.9915171
  98.6430931   0.2290615  66.0876799  62.1293354   2.1715279  87.3874092
  62.6858091   1.9383046  86.6443253  61.5045071   2.8024614  87.0300007
  76.0736227  10.7846344  51.9614172  76.9605732  11.0753262  52.1736765
  75.6473160  10.6759584  52.8115273  24.5444584 100.8129501  62.7937794
  24.8684716 101.7105961  62.8678417  23.9684367 100.8285332  62.0294571
  76.5826130 105.8481503  80.0226212  77.2925282 106.0734463  80.6238651
  76.8725586 106.1822510  79.1737747  72.4283409   3.0406407  83.7076759
  72.4248743   3.8657057  84.1929436  71.5046644   2.7989334  83.6395931
  99.6747589  76.2233353  89.4550991 100.1311779  75.4210615  89.2015553
  99.0224457  75.9360886  90.0939941  83.3177280  71.7409229   1.6202693
  82.8586864  71.7495728   0.7803621  84.0981293  72.2750378   1.4722148
  32.6279354  17.2198951  73.7564468  31.8299413  17.3883963  74.2574883
  33.0023098  18.0874467  73.6033773  81.0178185  18.9649749  71.8782425
  80.9682941  19.9085140  71.7248964  81.7617702  18.6752260  71.3502121
  44.2978764  27.0488572  63.4466696  44.2081928  26.8869948  62.5075293
  44.3855000  26.1773133  63.8326311 100.3704166  77.5401878  17.0150650
 100.7899189  76.7354631  17.3194671 100.8578873  77.7812386  16.2273490
 101.7265892  85.4866695  42.9867411 100.8824348  85.8017254  43.3098030
 101.5415859  84.6107864  42.6478624  53.9512348   5.2419257  64.0317822
  53.0659580   5.0455528  63.7252617  54.4648314   5.3446114  63.2305908
  79.5883894  45.0316525  27.3884344  80.4383850  44.6327972  27.2022867
  79.6485233  45.3077888  28.3029652 100.1571751 101.0686111  24.1688895
  99.3058395 100.8445549  24.5447278 100.3620243 100.3369427  23.5867119
   6.4811391  66.7577600  12.3192251   6.5285903  66.5335131  11.3898730
   6.9738042  67.5750351  12.3938668  97.0024395  91.9181252  16.6325843
  96.4402962  91.5079689  15.9753239  97.1532917  91.2306976  17.2813666
   6.3508320  58.4635210   7.0914072   5.9697556  59.0960836   7.7004027
   7.2733355  58.4153748   7.3422086  82.0850563  75.3366613   5.5355376
  82.7200794  75.8942986   5.9850091  81.3320065  75.3073978   6.1256987
 110.5590534  76.7503643  14.3503988 110.3361797  76.1061668  13.6784101
 110.1392937  76.4220428  15.1455295  13.3855414  75.1877022  38.8813949
  13.6912012  74.6310377  39.5975828  12.4961853  74.8819065  38.7031627
  26.0560894  12.0225084   2.8844425  26.7651033  12.6194656   3.1235445
  25.2567244  12.4939609   3.1189191  99.9355316  45.1947355   8.3339018
  99.4928837  45.3462410   7.4988335  99.8481464  44.2534256   8.4839869
  13.1033862  60.0103617  12.1048617  12.7063656  59.4007397  11.4827943
  13.5866177  59.4510889  12.7130818  87.4112606  78.4959459   2.8573498
  88.3164692  78.6063528   2.5664353  87.1631813  79.3548155   3.1994465
  88.5243702  67.3708010  42.2965670  88.8310909  66.9804335  43.1149578
  87.5785923  67.4604511  42.4136496  11.3972294  80.1648617  27.1598220
  11.3141298  81.0815907  26.8972516  11.3238513  80.1814365  28.1140614
  15.3412974  99.4900513   7.6650661  15.4188418  98.6418438   7.2283024
  14.6172667  99.3770504   8.2808912  50.9168339  33.9805269  66.8690109
  51.1043549  33.2903671  66.2328148  51.5088081  34.6937776  66.6301107
 106.3021564  86.0868168  15.9754813 105.3713131  85.9880924  15.7754505
 106.3209724  86.3979435  16.8805110  77.3046350  62.0847225   7.7610910
  76.4428425  62.3298025   7.4242210  77.1791267  61.2084198   8.1252003
  76.7090614  86.2674091   0.5868515  76.2661488  85.4845713   0.2594074
  77.6347501  86.0252998   0.6137070   4.9040779  36.9851828  28.2271767
   4.8283574  37.6369834  28.9240694   5.4852635  37.3896337  27.5830698
 104.3879223  55.9854698  18.0423772 104.5330334  56.8196774  17.5959718
 104.6875095  56.1381149  18.9385808  48.9981890  15.5703247  73.3273888
  49.3696785  14.9421251  73.9467382  48.1377506  15.7828808  73.6889172
  48.3361618   4.6352341  91.4769553  47.5430100   4.4759752  91.9885888
  48.2054036   4.1360475  90.6707634  78.3492947   5.9449571  86.7755890
  77.4266672   5.7069129  86.8668365  78.5963202   5.6188983  85.9101963
  91.4165688  89.5916462  16.0306871  90.9548378  89.2832851  15.2509749
  90.7232952  89.7587776  16.6691732   5.6175095  54.1926622  28.0464101
   6.2469929  54.1452742  27.3268700   4.7734821  53.9969683  27.6395273
  47.1193504  99.9354744   0.1258335  46.8837547  99.3801880   0.8690599
  46.2924147 100.3317738  -0.1486759  59.3397141  15.1725817  72.6810074
  58.5385561  15.1439679  73.2040358  59.5218658  14.2565095  72.4715662
  83.6897182  56.8685007   4.0259838  83.4940338  57.7018070   3.5975668
  83.3907413  56.2040377   3.4052306  94.9464893  76.7741108  38.2796979
  95.2575588  77.5829220  37.8731346  94.0409279  76.6890240  37.9814672
  82.5828838  64.4566774   8.7226564  81.6940880  64.7804546   8.5762042
  83.1219196  64.9478579   8.1026483  68.7883282  68.3160114  29.4790053
  69.2181778  67.5822592  29.0396070  68.1438971  68.6306095  28.8449955
 110.8225155  70.4976034   6.3122582 111.3203621  70.6425810   5.5076754
 110.2127552  71.2343502   6.3526559  17.6593029  17.4239266  82.4044704
  18.0361438  16.5597582  82.2388268  16.9312561  17.2570050  83.0030632
  77.3514891  94.7123528   4.5347613  77.1767044  94.0976334   5.2473629
  76.7764807  95.4563522   4.7138107  73.4153414   5.5374765  70.3518248
  73.4188843   6.1789370  71.0622835  73.0532885   6.0113406  69.6030951
  86.9386196  18.7358117  11.0368192  86.1390495  18.6425781  11.5547192
  87.5798512  18.1841314  11.4848149  61.3489676  40.7102203  88.4456825
  60.6907845  41.3645363  88.2113838  61.7656231  41.0608482  89.2328930
  14.7886682  85.6334782  25.7995868  14.7288752  85.8918762  26.7193079
  15.1807916  84.7605515  25.8210588  77.7126265  32.3508215  82.3818302
  76.9020271  32.2575855  82.8822994  77.6292562  31.7158699  81.6704178
  39.7480607  39.5460701  88.5093307  40.4613829  39.1227841  88.9870644
  39.9658227  39.4133806  87.5867176  91.2650585  98.4217834  11.2715423
  91.9607067  98.3918285  10.6147289  90.4638386  98.5578060  10.7657933
  91.0776424  67.1738052  45.0672865  91.5736294  67.2686338  45.8804560
  91.7442322  67.0303249  44.3954992  24.2205906   6.8182433  14.2332304
  24.8989105   6.2370896  14.5772862  24.1000748   7.4769783  14.9171710
  75.1537704  74.7678185  14.8967302  75.3769732  75.1041126  15.7646692
  74.5101976  74.0794849  15.0647938  82.9021835  65.6133413  12.5331402
  82.7903080  65.9712887  11.6524649  83.8214588  65.3490210  12.5692451
  91.1600304  59.7372198  26.0916018  90.6207943  60.0478840  25.3643131
  92.0442009  60.0358725  25.8788466  42.4002314  56.8388796  81.7479992
  42.9313374  56.0464001  81.8262768  42.7736855  57.3045397  80.9997177
  41.1481142  99.2212677  89.4215012  40.7235956  98.7499142  90.1383305
  40.4536819  99.7629833  89.0466213  56.6528463  23.6909103  44.3698168
  57.5456762  23.3487558  44.3248892  56.6037607  24.1207600  45.2236605
 106.5819263  41.5506124   5.0781327 105.7179165  41.8686962   4.8163047
 106.4052010  40.7333612   5.5440706  24.1037464  98.6459064  77.8494406
  23.5182428  98.1989098  77.2382069  23.5389948  99.2638493  78.3135939
  48.6527157   4.0366673  76.5433121  48.9797926   3.8222170  75.6696606
  49.1627264   4.8019314  76.8088198  55.4662848  42.2985840  89.5742416
  54.6197891  42.1756411  89.1446400  56.0554504  41.6968822  89.1191959
  15.1429451  80.2768230  88.4114933  15.4512835  81.0947227  88.0213737
  15.7162666  79.6046591  88.0430698  88.1996155  65.0957346   5.6185693
  87.6435089  65.8562279   5.7877886  88.4240437  65.1648617   4.6906218
  72.9690742   9.7236842  74.2953157  72.9828691  10.2095175  73.4706926
  72.8806829  10.3978539  74.9690485  60.6491232  76.7765999  17.3094773
  60.7028294  75.9490538  17.7875102  61.4063692  76.7646360  16.7241013
  75.2229834  99.5222092  89.8780823  75.7909679 100.2926350  89.8705101
  74.4539690  99.7964859  90.3777122 102.3233128 105.5255795  29.1271186
 102.2778034 105.5998230  30.0803494 101.4156437 105.6141472  28.8363791
 104.4079685  94.5695877   1.5021728 105.0326443  94.5697308   2.2274373
 104.4685268  93.6880684   1.1340819  49.7436333  46.2130260  83.1580830
  48.9771700  46.7780256  83.2557869  50.4607677  46.7126036  83.5484219
  46.0920286  22.4035215  55.0340176  45.2765226  22.8099823  55.3272200
  46.5238047  22.1235704  55.8411312  60.1213121  37.1664310  82.9771519
  59.3568087  36.6667700  83.2636929  59.7550297  37.9251409  82.5228024
  86.0472393  35.7995224  73.6529922  86.2672043  35.8866072  74.5804977
  85.0935459  35.8763576  73.6247683  82.4293041  75.9397507   2.7381000
  82.3107433  75.6870699   3.6537018  83.3692265  76.0998726   2.6536134
  24.0969491  15.1923883  72.3150635  23.3088803  14.6737671  72.1531725
  23.8111567  16.1003077  72.2138882  13.1479049   8.3524823   7.8179437
  13.8980937   8.7740839   8.2371098  12.8150618   9.0091574   7.2062045
  46.9820166  12.6958466   2.4373455  47.3446035  13.0515528   3.2486609
  47.0765924  13.4050989   1.8015397  39.1821504  43.0683422  71.3239431
  39.0789938  43.8942337  71.7966938  38.8737726  43.2592869  70.4381227
  59.8762703  31.9062376  84.1694164  60.2757120  32.1334863  83.3297443
  58.9446211  32.0899487  84.0489674  16.6890156  40.0260496  71.7031384
  16.6585362  39.5800757  70.8567286  17.6228023  40.1371336  71.8818426
  85.0959492  73.5223961   9.1348761  85.9710121  73.9103270   9.1354710
  84.5715904  74.1133881   9.6752584 101.2363052  70.8575201  10.9364963
 101.2027073  69.9009609  10.9267223 101.6152000  71.0925388  10.0894809
  19.5549428  28.0532742  85.7488346  19.7469139  28.6372614  86.4825535
  20.2876878  28.1776714  85.1456451  14.3317842   6.0840160   3.3803561
  14.7974157   6.7523968   2.8776777  13.7443781   6.5794575   3.9510784
  67.6740932  81.5867519  31.8800712  67.0878935  81.7102432  31.1335135
  67.4603415  82.3062992  32.4740314 111.0292149  52.5682259  18.2500780
 110.6826401  51.7505693  17.8929222 111.5173626  52.9584074  17.5250256
  92.7973747  85.6076145   4.1138166  92.3285866  86.2048244   4.6967393
  93.1777954  86.1759853   3.4441435 100.7588768  71.0741615  22.2360945
 100.1330185  70.9326315  22.9463744 100.2309513  71.0281372  21.4389682
  62.4225616  15.0621688  79.9589968  61.5753555  14.6166611  79.9589729
  62.2881079  15.8324909  79.4069481 104.6659374  69.0572739  23.8185048
 103.8057327  69.2386723  24.1971445 104.5666504  68.2040167  23.3962202
  84.9063206  88.6100578   4.7644448  85.4695129  87.8460884   4.6403173
  85.4718781  89.2590809   5.1829368  65.6798935   8.5227025  72.5529242
  65.1159811   8.9678210  71.9203806  65.5957460   7.5940102  72.3368645
  94.4248676  48.9756966   6.2607867  95.1116371  48.3422375   6.0526919
  94.2791653  49.4487858   5.4415244  30.4438019   1.7139624  16.6754127
  30.0277925   0.9504940  16.2750578  31.0474873   1.3467105  17.3211074
  88.3341789  58.8898659   0.2852143  87.6639843  58.5758829  -0.3218187
  88.3741856  58.2182741   0.9660920  41.1892462  21.3822079  79.0175200
  40.4568911  21.9483972  79.2610645  41.2371731  20.7361650  79.7221899
  84.9922466  51.5171528  82.6006317  84.9457073  52.2238111  81.9566631
  85.6481743  51.8117094  83.2324791  12.2184050  45.8234787   9.6278602
  11.4281094  45.7617712   9.0913373  12.1292412  45.1171970  10.2677405
  31.9389868  99.8193550  77.9242516  31.1691737 100.2392769  78.3080244
  31.6259551  98.9613342  77.6378012  87.3468208   3.6263996  57.2081900
  87.6432705   2.7884567  57.5634432  86.4086914   3.5057980  57.0612144
  68.7564135   7.6978970  71.3483715  69.5311975   8.0892217  70.9448767
  68.1308126   8.4192991  71.4149284  46.4041948  56.4888144  91.5758610
  46.0321760  56.0668516  92.3503208  47.3063898  56.1710262  91.5400600
  75.7111645   8.1115389  43.6922312  74.8317480   7.8427196  43.9579344
  75.8813620   7.6158881  42.8912354  87.0780945  67.4488592  20.1098180
  88.0309868  67.3614025  20.0854659  86.7668629  66.5952539  20.4110241
  79.6706724  56.8197823  30.7451129  79.0528965  57.4388599  31.1341166
  79.4346428  56.7966318  29.8177576 104.0101433  78.6623716   3.1963655
 104.2178631  79.2748880   2.4907410 103.1791973  78.9785004   3.5510784
   8.2366276  21.1704063  27.9636240   8.1707436  20.3636336  27.4527335
   8.8588274  21.7115617  27.4775696  93.1445312  67.6844931  40.9984112
  93.5144329  67.7022839  40.1157522  92.7322769  68.5420513  41.1026669
  50.4860783  12.6664317  89.5148849  51.3838482  12.5478685  89.8250294
  49.9543762  12.1433794  90.1148319  38.9890337  77.5605106  61.1144781
  38.6678123  76.6872454  60.8898544  39.7675610  77.3995399  61.6475916
 103.4350395  70.0456142  21.4839387 102.5863361  70.2072859  21.8960071
 103.9793396  69.6918964  22.1873951  74.7155094  19.0860176  64.3222570
  74.8610449  19.8673081  64.8557663  74.7705364  19.3989122  63.4193134
  11.0840213   8.3268046  89.1394329  10.4063904   7.7858394  89.5449066
  10.7869244   8.4466875  88.2374477  84.1732979  75.6579018  10.6132746
  84.7625923  76.4096785  10.5516243  83.3805180  76.0077238  11.0198975
  52.1909809   0.1327647  11.5499282  52.3747396   1.0394198  11.7957771
  51.6802120  -0.2148273  12.2810411  57.4189425  90.6171036  90.2983665
  58.3393335  90.5072498  90.0595284  57.1658278  91.4497948  89.8998833
  33.8012671  38.5443735  24.6601534  33.1133723  37.9817891  24.3044376
  34.5902705  38.2895684  24.1818428  45.3111029  93.2197475  87.6265812
  45.9740973  92.5715351  87.8642559  44.6428108  93.1394386  88.3071423
   3.0871731  50.3112411   6.6757506   2.7949619  49.4197035   6.4860165
   2.5993028  50.5613136   7.4604034  63.5700750  88.2488632  16.2475228
  63.0327368  87.8735447  16.9451165  62.9460621  88.7075424  15.6849897
 103.5874081  69.5889235  27.0955658 102.9559422  69.3102026  26.4323974
 103.7445641  70.5133152  26.9031167  98.6039257  46.0952902  18.3190298
  99.1943073  46.4034128  17.6314628  98.8518238  46.6019630  19.0923762
 106.3399696  36.6336942   7.8244430 106.4902306  36.9405651   8.7185824
 105.8311844  35.8297443   7.9294556   5.4272753  65.2177715  20.1917028
   6.3308096  65.0425339  20.4546666   5.3195751  66.1604548  20.3181100
 109.5552444  68.7489033  39.1217470 109.4253159  69.0955400  40.0044632
 108.8476753  69.1356659  38.6059999  23.3881760 102.1682262  49.7038269
  23.2417583 103.0449867  49.3487453  22.5160623 101.8616676  49.9521589
  21.2072992  13.9173579  68.6618185  21.1143923  14.1743875  67.7444649
  21.3741493  14.7383237  69.1248560  91.0386944  86.2026310  20.9758401
  91.0012722  86.0490322  21.9198942  91.8625069  86.6712666  20.8418965
  88.1149387  44.6634912  80.9049416  88.0683708  45.5824089  80.6410313
  88.6452198  44.2459345  80.2262115  88.2550144  89.5053768   2.5344867
  88.5201740  89.6524143   1.6265744  88.7575340  88.7385368   2.8095677
  40.6460381   9.9288094  76.6782761  39.9305773  10.5328095  76.8770933
  40.4726505   9.6386313  75.7827520  99.6018314  49.9908543   0.2240852
 100.4348373  49.6883535   0.5857799  99.5611095  50.9178209   0.4592643
  11.2482011  63.6438704  16.8748128  12.1237755  63.3589458  16.6132379
  11.4035463  64.3493080  17.5028682   9.5423955  45.3480530   9.0472114
   8.9072484  46.0598469   9.1257888   9.0108865  44.5705605   8.8762307
  49.3142653  23.7640500  60.6056452  48.5311174  23.2227254  60.5062675
  49.9325037  23.2064366  61.0779619 103.4555626  92.6196575   9.0572274
 103.2901859  92.7049541   9.9961668 104.3859196  92.4028778   8.9966172
  13.5903883  96.5752697  38.1102300  14.1798770  96.2929630  38.8095427
  13.5680830  95.8359051  37.5027180  87.9180717  87.7732658  10.3368795
  87.2955704  87.0784855  10.5513346  88.7707329  87.4157619  10.5846441
 103.2657909  72.1661425  17.4448657 103.5268116  71.7219496  16.6381454
 102.7325058  71.5222979  17.9110217  29.5442319   8.5297489   7.2417682
  29.4277382   9.0360123   6.4378035  30.0338745   9.1120344   7.8226525
 112.0779228  59.1036844  14.1436732 112.3858643  58.2970476  13.7304604
 112.8087330  59.7147655  14.0502286   4.5998135  83.8461018  20.1370454
   4.8968858  84.0432739  21.0253596   3.6638245  84.0462112  20.1475573
  86.2443542  30.0198078  79.1978979  86.5689373  30.8771467  79.4733047
  86.6108704  29.8948455  78.3225203  60.1112175  54.1934681  83.9486122
  59.5998144  54.4554567  84.7141647  59.5011234  54.2708492  83.2151031
  68.5916328  75.4003429   4.9781644  68.2130432  76.2781477   4.9296275
  69.4489574  75.4858685   4.5611376  99.5512867  81.6800690  11.3842356
  99.4541550  82.4208832  10.7859051 100.3074551  81.9069099  11.9255114
  30.5653000  95.8502579  20.0252867  31.4308453  95.4415512  20.0204802
  30.7415247  96.7829609  20.1487327  57.2003126  13.2134426  91.0243320
  57.2710228  14.1520607  90.8504677  57.4822807  13.1164277  91.9338989
  79.2547083  27.5406265  82.3164558  79.9724627  27.5074887  82.9488754
  78.6144733  26.9107795  82.6475525 111.4337063 105.0009537  26.0283947
 111.6889572 105.5619049  26.7607999 110.4846382 104.9113274  26.1147809
  52.8641176  35.6060433  88.7531376  52.9091692  35.4145169  89.6898937
  52.8750229  34.7464705  88.3321285  65.0988674  15.5120397  67.1270227
  65.0531578  16.1115515  67.8718233  65.4359722  16.0475707  66.4088345
  39.4883132   2.4489157  22.0859194  39.1886973   1.7893185  21.4603019
  40.1774549   2.0102628  22.5848174  78.1585789  22.6015973  84.7873306
  78.7459326  22.3661351  84.0691280  78.0780697  23.5535955  84.7285938
  95.6963253  63.2589722  86.3735962  95.8783245  63.2771444  85.4340363
  96.4028358  63.7731123  86.7644024  83.8235760  38.5181260  77.3214483
  83.5251141  37.8206372  76.7377853  83.9054775  38.0961084  78.1766844
  21.4283848  46.3599300  11.7290270  21.6898155  46.3754368  10.8083510
  20.7962775  45.6434345  11.7864823  52.8445005  50.7270193  75.5791616
  53.7687540  50.9750319  75.6009817  52.8507948  49.7726822  75.6528759
  52.1604347  20.9560966  14.7071159  52.2598314  21.5492988  13.9624929
  51.2237978  20.9733129  14.9036920  99.2136288  71.8827724  29.8080492
  99.9778843  72.4468184  29.6897650  99.3724251  71.1392021  29.2265701
  87.7247810  90.5385208  14.0673757  88.0981827  91.3931084  13.8517976
  87.3005676  90.2516079  13.2587004  99.3965340  94.4680977  14.6185398
  99.2674255  95.3575420  14.2892134  99.8700905  94.0196705  13.9179099
   0.5350356  98.2451439  21.3953972   1.2538423  98.0699444  22.0027328
  -0.0924655  97.5407028  21.5573764  90.9694290  42.5467062  77.6101255
  91.4075470  42.4804592  76.7616606  90.3376579  41.8276119  77.6102495
  17.0368826 104.2870235  79.2207623  17.8013504 104.2463589  78.6461592
  16.6079569 103.4386158  79.1091299  52.2543335  24.1115022  42.9656363
  52.8994226  23.4740472  43.2718086  51.4412451  23.8582206  43.4026384
  26.5141487  71.2094116   0.9825365  27.3754930  71.1016750   1.3859147
  26.2213564  70.3163767   0.8008822  66.9916391  39.3582439  84.1762257
  66.0359573  39.3467546  84.2288303  67.1821499  39.2184734  83.2486439
  24.0508652  80.1172256  25.3152847  24.3507290  79.2260218  25.1361895
  23.1760645  80.0053501  25.6873608  69.3049526  93.9629078   0.7194826
  69.8874474  94.2243004   0.0063154  69.7012663  93.1664181   1.0727146
 100.1017189  77.5634527  44.7345209 100.5884171  78.3791113  44.6159744
  99.3732166  77.6273060  44.1169119  87.1739769  31.2948918  59.9200058
  86.8083286  31.3395357  59.0365267  87.2668076  32.2093177  60.1872921
  59.3705702  28.6090279  82.6661396  58.5427284  28.1602931  82.4942493
  59.8348236  28.0313873  83.2719803  74.1130877  13.1005013  91.8560982
  75.0089741  13.3734083  91.6582489  73.8789845  12.5098848  91.1401367
  74.2871475  29.3918562  84.9600506  74.2664671  30.1467276  85.5482388
  73.5617256  29.5408344  84.3535805  27.6721215  65.7616043  19.2270339
  28.2212853  65.5851173  18.4631598  26.7764521  65.7276583  18.8910937
   8.9118713   3.4046859  26.6976857   9.0481526   4.1096124  26.0646462
   8.3310378   3.7840167  27.3572087  23.3735847   0.0758695   4.9048841
  24.1891050   0.2471944   4.4339201  23.3219481   0.7750376   5.5565965
  55.1718283  28.1164289  72.1619129  55.4615450  27.3803616  72.7008963
  55.5478573  27.9438591  71.2987518  34.3555307  21.3693714  16.5686631
  34.8513508  21.5509963  15.7702863  35.0139236  21.0738134  17.1974695
  90.6817627  92.0275307  39.9608469  90.6154156  91.1893749  40.4183817
  90.0383377  92.5884342  40.3939819   6.7446733  67.5650978  23.8399720
   7.4475014  68.2109690  23.7684774   5.9909910  67.9843092  23.4246945
  96.2315464 101.0079861   4.6647519  96.8073273 101.2570572   5.3877127
  95.5190277 100.5237293   5.0819379 100.3074551  87.1431637  21.7228842
 100.2563095  87.9076481  21.1491442 101.1745930  86.7746162  21.5541029
  18.1194723   0.7819913   4.9694520  18.6966586   1.1351624   5.6464732
  17.6057506   0.1109086   5.4188615  91.7011261  71.5393257  19.5398903
  92.2353935  72.3323965  19.5826221  91.2118912  71.5355015  20.3626084
  58.0816984  60.1288414  87.2824574  58.0526543  59.7550774  88.1631851
  58.2853842  61.0537434  87.4213791  14.6285415  79.7728872  34.5163989
  14.1638017  79.1788912  35.1058245  15.0628138  80.3965569  35.0983548
   5.1558059  97.5213718   7.2575581   4.8160037  97.8316402   6.4182127
   5.6886250  98.2468510   7.5831676   6.4764535  60.5141973  16.8613374
   6.9755656  60.6589174  16.0574865   6.8990868  61.0768127  17.5102425
  17.2120702  67.8566694  25.8780551  17.4164963  68.1021214  26.7803836
  17.7266014  68.4610128  25.3430200   9.5781702  46.1780834  18.0780506
   8.6304027  46.3082647  18.1099987   9.8236740  46.4232731  17.1859515
  94.1695499  50.6236887  88.3448887  94.6023655  50.3191805  89.1424942
  93.4387112  51.1569071  88.6576080  69.9251986  38.6303186  90.1089954
  68.9843845  38.7157488  89.9547005  70.3111362  39.3806767  89.6570492
  81.6217613  42.1009159  64.6396160  81.8458557  41.5140295  65.3618193
  80.8383560  42.5618029  64.9397898  10.6338573  98.8074970  18.4731352
  11.1519647  98.2365608  17.9058433  11.0045087  98.6780071  19.3461084
  85.6864262  87.6084900  27.5857878  85.5627060  87.5912189  26.6367769
  86.3082218  86.9017029  27.7591634  66.0354185  24.0605950  65.4522038
  66.9464636  24.0507293  65.1587200  66.0649681  24.4824243  66.3109350
  76.5522718  49.5765734  89.7441864  75.9950304  50.3480148  89.6412849
  76.6795444  49.2523909  88.8525867 111.7334747  86.2329006   7.3665535
 111.9751263  85.5953693   6.6946995 112.4051666  86.1357594   8.0415571
  85.6613731  93.0468845   5.6377792  86.4187622  93.5549545   5.9284043
  85.9841919  92.1476460   5.5796635  13.4297776  81.7681980   3.4443942
  12.7445233  81.5130520   2.8266907  14.1934013  81.2549496   3.1804147
   5.8668250  85.7215405   1.4243409   6.0712147  86.3021183   0.6912749
   4.9313748  85.8520889   1.5796548  86.1044598  46.0462713  90.7909966
  86.2137699  46.4540529  89.9319267  86.0390186  46.7826080  91.3990688
  96.0887146  22.6694512  74.1691971  96.9815063  22.5073647  73.8644361
  95.5629063  21.9944286  73.7401247  89.6802521  24.4020319  88.0883408
  89.7280693  24.3222380  87.1356773  88.7430191  24.4423985  88.2785702
  33.2079268   9.6628761   8.6911863  33.5908365   9.6690798   9.5684403
  32.5582814  10.3656530   8.7084383  73.8348150  17.5528014  80.3974533
  74.2603207  18.0971706  79.7350025  73.5975361  18.1648672  81.0940933
  57.6093292  32.9598451  82.9154778  56.9162321  32.5848770  82.3721123
  57.9596806  33.6811328  82.3927593  41.0562468  82.9975033  84.8729229
  40.6994247  83.3888054  85.6702900  41.2130547  82.0821381  85.1047802
  79.9319553  61.8998337  87.4571991  80.3148079  62.3359871  88.2183933
  79.6722746  62.6152515  86.8767071  10.8388186  88.7104034  42.1477270
  10.1059675  88.1950665  41.8106937  10.6563079  88.8033104  43.0827618
  90.3701210  65.9356070  19.0674984  90.6641960  66.7839384  19.3992865
  89.8376942  66.1495638  18.3013582  73.6391449  40.5668879  79.6680117
  73.4004450  41.3318396  79.1444588  73.1837130  39.8373985  79.2477083
  82.6043701  65.8831692  88.5305023  82.7367306  66.8253326  88.6355495
  82.6477051  65.7391453  87.5851917  19.6050036  55.6632423  24.8551702
  19.5043814  55.7334471  23.9058661  19.7855246  56.5578890  25.1437020
  82.2422218  99.5083809  12.8505802  81.9789410 100.3580856  12.4971485
  82.6461315  99.7143650  13.6935866  45.7687855  20.7637453   9.6105421
  45.7618713  20.4228640  10.5049610  44.8481846  20.7671857   9.3484104
 102.4105263  40.0461483  65.5931902 102.0265388  40.1585817  66.4627552
 102.5802803  40.9377813  65.2892113  62.5310993  26.1232829  75.1864910
  62.8060818  26.7561889  74.5231342  62.9656315  25.3083968  74.9347496
  20.2369213  76.4542055  22.6651478  20.1555967  77.3204470  23.0642056
  19.3526185  76.0896540  22.7017641 100.9656525  93.9224243   3.9663634
 101.4170933  93.6475849   4.7644198 100.4955673  94.7171497   4.2186972
  32.8755260  94.6572399  68.6982393  32.8386211  94.6451283  69.6546507
  33.4552121  95.3899765  68.4901762  99.7762489  52.1028996  13.4801412
 100.0047779  53.0019808  13.7160754  98.8571262  52.0152664  13.7326431
  87.5350094  14.5648980  69.0517426  87.4036598  15.4071367  69.4871902
  88.3543015  14.6704841  68.5681629  57.2013044   9.4235021   4.0697834
  57.8840017   9.2193657   3.4306550  56.6822052  10.1119709   3.6541137
  67.4683857  90.1494789   6.3117927  67.8003407  89.3869495   5.8378863
  67.7257013  90.8973026   5.7725459  89.7889328  59.6658134  28.4829211
  88.9782047  60.1119423  28.2381558  90.2250957  59.4874191  27.6497483
  59.4395590  11.0509050  14.4732344  59.9775791  10.3155494  14.1799438
  59.9195671  11.4177430  15.2156997  75.2752495  20.4992437  69.5023489
  76.1890125  20.4903460  69.2174196  74.9351025  19.6429718  69.2428732
  63.1200457  34.9138355  83.5184097  63.5466957  35.0408840  82.6710224
  62.9762745  35.8003712  83.8494873  94.6537590 100.4875469  10.2250111
  93.7277031 100.5493927   9.9908549  95.0609303 101.2378120   9.7919434
  68.4799004  60.6141424  38.6544776  68.0594683  60.8877850  37.8392553
  69.0870142  61.3247395  38.8611174  35.1283383   2.1513280  15.7822347
  35.2168632   2.6761612  16.5778136  34.3846750   1.5746406  15.9572470
  69.7910213  49.3296862  86.7352962  70.3908205  48.8937473  86.1299610
  70.0322533  48.9905405  87.5972843  85.6530762  20.4095936  84.0328503
  86.0997009  20.4719019  84.8771667  85.6144142  21.3117170  83.7151909
  79.9403667  10.1021385  79.9922848  80.6617546  10.5576921  80.4262257
  79.1953468  10.6969726  80.0780296  29.1620207  97.5776577  29.9100709
  29.8427486  98.2079792  30.1457286  28.6103487  98.0444050  29.2823505
  74.3260527  23.8833380  62.8063869  75.1273298  23.8512421  63.3290339
  74.5286417  24.4901991  62.0944118   0.1638065  62.9291773   7.4964261
   0.2580963  62.2393942   6.8395108   0.4910313  63.7180042   7.0640939
  46.5458679  18.1491113  82.9069233  46.1846256  17.4054706  83.3893490
  47.1288681  17.7537525  82.2588253  43.7451172  32.5064301   6.8364143
  43.2867765  33.3176517   6.6171557  44.5207834  32.7924705   7.3188633
  75.9549093   8.6432546  61.6560030  76.6172886   8.6376989  62.3469877
  76.4098787   8.3036590  60.8853483   3.7123471  74.5747471  39.0095258
   3.6554781  75.2309847  38.3150148   3.1199339  73.8771868  38.7290168
 102.6172829  19.7335839  79.3143129 102.0217228  19.6216571  80.0552654
 102.0702648  20.1027775  78.6209869   5.2119279  77.8452826   4.7735190
   5.5938768  77.5849485   3.9353228   5.7257611  77.3722696   5.4280919
  17.3018372  23.2380652  63.7423372  16.6763425  23.7226391  63.2036543
  17.7269101  22.6353574  63.1321812 101.9522858  76.9581223   6.3880068
 102.4737740  76.1654663   6.5143925 102.4932098  77.6607180   6.7485374
  82.8853893  37.4387956  62.3200369  83.5060024  37.8996587  61.7555237
  83.4338093  36.9965172  62.9680061  43.3021450   5.5367512  25.7664132
  44.1731310   5.3150731  25.4370475  43.3090639   6.4912170  25.8383751
  17.0679975  76.7831039   9.4940698  16.7502165  76.3500595  10.2863562
  16.2735379  77.0210457   9.0161049  11.6401744  96.6149235  14.9980199
  11.0037947  97.2853947  14.7495854  12.4631250  97.0926094  15.1019669
 105.6444359  57.5038862  80.8438587 105.6917095  57.4668694  79.8885393
 104.7965431  57.1141529  81.0569859  97.7033329  48.8170052  70.7696247
  97.0447540  49.4739723  70.9952497  98.3385086  49.2895460  70.2315855
  87.1303463  57.7603626  10.3769994  86.2261391  57.7511024  10.6909299
  87.2275066  58.6123610   9.9516875  82.5832844 101.6282654  24.6824980
  82.8399849 102.4558735  25.0891995  82.4727726 101.0245514  25.4170394
  85.7113361  82.0700836   5.0924695  85.9836960  82.8851509   5.5140257
  86.5303516  81.6094780   4.9100265  38.4210610  81.4318657  12.1884966
  39.1107368  81.8452740  12.7077973  37.8463221  82.1542072  11.9352674
  15.7723212  59.8141909  82.7296257  16.1441493  58.9473629  82.5665855
  15.2515054  60.0021315  81.9488239 106.3106823   1.7858638  30.5604100
 107.2313976   1.7424986  30.8185554 106.3237190   2.1929234  29.6941757
  95.7836819  96.1834621   2.0930801  95.8223152  96.2331200   1.1379503
  95.9019470  97.0873833   2.3848964   4.5699087  21.4920926  88.1751251
   4.9698976  22.1595097  87.6176357   3.6486179  21.4838910  87.9155350
  96.2740898  45.0234556  46.4877129  97.1328735  44.7282696  46.7903376
  95.7874107  44.2157602  46.3233852  71.9700909  61.9034386  89.3227482
  72.1943426  62.3010349  90.1640892  71.0213184  62.0093203  89.2531013
   6.4180720  87.4729061  20.8392406   6.7486125  86.5787315  20.7530832
   5.5193508  87.4285316  20.5128026  28.9666414  97.9959106  15.9019101
  28.6394000  97.9751682  15.0026250  28.3463740  97.4588680  16.3949430
  55.2337027  97.6581764  15.9184778  55.1972580  97.7954578  16.8650794
  55.0743628  96.7210484  15.8060634  83.1989574  58.8151789  85.5109692
  82.4512959  58.7946177  86.1083031  83.9644909  58.8211012  86.0855579
  83.8035107  34.5227504  80.1356888  83.6318016  35.1401043  80.8467674
  84.5635700  34.8861623  79.6812963  32.0339155  91.5121746  11.1249065
  32.0926619  91.9586086  11.9695795  31.2641191  91.8954182  10.7044685
  29.5369172  74.3892860  26.0566616  30.0477242  75.1903534  26.1733103
  29.2295575  74.4309473  25.1511097  50.9141922  42.0806837  88.1931210
  51.7936325  42.3958540  87.9846001  51.0208845  41.5977669  89.0126610
  25.8238101  79.8276901  15.1999068  24.9565077  80.0783157  14.8817801
  26.4322782  80.3258896  14.6542013  77.5797892  27.3158956  90.2076054
  77.9268265  26.8297005  89.4596672  76.7537928  27.6827717  89.8923874
 112.4737740  75.0762367  16.6158259 112.9810047  75.8045149  16.2572718
 111.5738964  75.4013920  16.6426611  89.5485401  82.9114437  39.0221310
  89.9325180  82.0353222  39.0569067  89.2272758  82.9966831  38.1244898
  11.8224490 104.8080444  89.1055202  11.3825583 105.1116753  88.3114624
  12.3724580 105.5449677  89.3713379  11.7579365  88.0160809  28.6049056
  12.2694147  87.9104137  27.8027487  11.6423678  88.9622402  28.6923814
  72.7676995   0.0411958   4.6748656  73.3187540  -0.6966430   4.9359396
  72.8993828   0.6936616   5.3627509   8.4570253  65.2700996   7.1839678
   7.9270828  65.8909750   7.6838768   9.3568015  65.5752707   7.3001826
  76.6643286  37.5444198  75.7271528  76.0536194  38.2753062  75.8223581
  76.8225002  37.4856377  74.7849464  82.6504517  21.7361116  88.3869457
  82.5873184  22.5515032  88.8843250  81.7421436  21.4977336  88.2015133
  79.3912888  25.9916115  88.3660412  80.2627182  25.8127213  88.0127048
  78.7929106  25.5532169  87.7610779 106.5461063  36.1177206  85.6353283
 106.1777020  36.4689565  86.4459705 107.2393131  35.5244207  85.9246159
  86.4711285  67.8883791   6.1453289  87.0631123  68.4738159   6.6176146
  85.7515240  67.7312517   6.7566508  91.6663742  60.4616737  89.6135330
  91.9516277  59.6062946  89.2923069  92.4583817  60.9990454  89.5995903
  77.1612215  67.8336573  83.4026623  77.3728895  67.2291899  82.6912880
  77.2798252  68.7034798  83.0211163  79.8929167  34.0307212  85.7929230
  80.6364918  34.0588427  85.1908112  80.2260590  33.5711002  86.5636349
  71.2675333 101.2270164  20.4515314  72.0146608 100.6917191  20.1841593
  71.1785936 101.8785763  19.7559834  39.8073816  88.5101891   3.0043593
  38.8602662  88.4621906   3.1343654  39.9147248  88.6050987   2.0579439
  28.9379454  49.2056465  84.0251637  29.8150611  49.2023706  84.4084167
  29.0895534  49.2166328  83.0801105 101.6173840  30.5027866  90.7472992
 100.6679249  30.3945279  90.6921482 101.7403030  31.4223242  90.9830379
  94.0550518  81.6749763   8.5880309  94.2756748  82.5073814   8.1701094
  93.4579277  81.9137669   9.2970055  91.2014484  89.8330498  21.7184329
  91.6263294  89.2161083  22.3143411  91.2747288  89.4227886  20.8567214
  73.7200785  24.2042708  74.9314070  73.5918283  25.0339246  75.3912544
  72.9061508  23.7218165  75.0762844  35.5889082  87.5071812   6.8887150
  35.3054833  87.5826073   7.7998751  36.3953352  88.0210304   6.8454123
  26.1490774  12.3573017  39.3908691  25.5533433  11.9130230  38.7875891
  25.7153106  13.1875372  39.5878148  92.1683441  34.2244484  91.7819143
  92.4166761  35.1291038  91.5917177  92.9995559  33.7748768  91.9342384
  42.9595709  56.9846153  12.3515844  42.0898342  57.3711538  12.4534655
  43.3172750  56.9624186  13.2391572  99.1860867  53.7600183  83.2057285
  99.9534225  53.5453510  82.6753235  98.4420872  53.6091471  82.6226902
  34.8420453  71.4139271   5.2961385  35.0606775  70.9253979   4.5025563
  35.5633926  72.0341682   5.4019463  27.2006631   0.2541451  31.8760920
  27.7877331   0.9450410  32.1830821  27.5550103  -0.5486625  32.2584128
   4.9311930  81.7302132  91.1814880   4.0441146  82.0443916  91.0065079
   5.2733517  81.4874077  90.3211403  14.8915672  75.3616142  23.9686990
  15.0283015  76.1021852  24.5595407  14.9073660  74.5935535  24.5397162
  89.0557098  95.2083588  12.1423578  89.3320847  94.5498180  12.7796745
  89.8487568  95.4078197  11.6448295  84.1581154  85.2442837   5.1826161
  85.0692368  85.2449036   4.8892036  83.7588882  85.9846783   4.7258177
  73.4304380  32.7826142  91.7103767  72.7534246  32.9769468  92.3585510
  73.2784176  33.4151602  91.0082340 103.0578709   3.4842494  82.9072762
 102.2403431   3.4936625  82.4094868 103.0697823   2.6265413  83.3320427
  56.8990755  19.5452332  86.4793682  56.9716358  18.5976183  86.3653755
  57.7987432  19.8387575  86.6231537   2.0393790  40.8844948  82.4761105
   2.4110827  40.0024223  82.4797630   2.2210796  41.2173367  81.5972328
  93.3941364  67.2089148   6.9257307  93.2329655  67.3880482   5.9993577
  93.9548779  67.9287863   7.2148556  58.7651110  40.0243521  85.1132965
  57.8942585  39.6768546  84.9206924  58.6304665  40.9668970  85.2118492
  30.8141463  25.2159216  91.8241609  30.5929749  25.0875856  90.9017494
  31.2537186  26.0658600  91.8490525  76.9209766  15.0314212  51.0000086
  76.9220352  15.8470476  50.4990244  76.1216974  14.5823503  50.7248306
 107.0938969 100.6639194  24.8986959 106.6792583 101.2171459  24.2366934
 108.0281544 100.7054520  24.6945596  45.3226376   7.8080648  15.9324300
  45.5173302   8.1494403  16.8052351  45.1597452   6.8750626  16.0710144
   9.5751405  80.2172375   9.5518196   9.4888681  80.3153801  10.5000579
   9.7388059  79.2831612   9.4216144  63.0155945  25.0696945  88.8452435
  62.8374624  25.8744645  88.3585835  63.6879063  24.6226764  88.3310413
  76.4232016  87.8495312  10.4222977  77.0942259  88.1428528   9.8059195
  76.5238190  88.4273529  11.1787570  15.8901489  58.0257940  16.3594711
  15.1413703  57.5222301  16.6788220  16.6410708  57.4464464  16.4887202
  10.7890201  54.9995136  16.2593126  11.1394560  54.7255993  17.1068966
  10.9052563  54.2358875  15.6939852  59.8365164   6.2123710  78.7510014
  59.7982550   7.1645820  78.8407898  60.5009604   6.0617012  78.0786610
  73.3096027  26.0462070  84.4828510  73.6974144  26.6069365  85.1547241
  72.4626493  26.4500022  84.2934895  61.7191601  95.3867626   8.4570879
  62.1172237  95.9208393   7.7696723  61.2657070  96.0166073   9.0173614
  45.3555155  76.1542082  10.9818363  45.6505346  75.2726746  11.2100720
  45.3643560  76.6319752  11.8112302  94.2526436  22.0981097  67.8200293
  93.8840485  21.7291427  67.0173883  93.5038853  22.4902606  68.2692528
  48.7254333  44.3313026  71.8857861  49.0688419  44.9399900  72.5398540
  48.7151146  43.4833717  72.3297882  94.0879536  87.1650314   2.2678031
  94.4302177  88.0584621   2.2383694  94.0442467  86.8949509   1.3505369
  86.9173908  99.3974781   7.8854346  86.2476063  99.8527718   8.3956653
  86.9622517  99.8830223   7.0617414  14.8347139  14.4092906   5.7461911
  15.6268680  14.1241968   6.2016535  15.1311743  14.6243358   4.8618272
  64.4783163  20.2720165  82.2992992  63.7335396  19.7517216  82.6006889
  64.3332863  20.3754640  81.3588238  17.6821196  95.3899765  14.9107909
  17.6585329  94.6513462  14.3024302  17.5499475  94.9948120  15.7725394
  28.2358408  86.7503071   4.4706008  28.8614774  86.0535240   4.2723599
  28.7301397  87.3707581   5.0062680  50.0588512  31.9839406  87.5181389
  49.2093658  32.4143958  87.6146507  49.8457193  31.0598612  87.3882103
  61.4167404  45.4992056  88.5535622  61.4772940  44.7160912  88.0064774
  60.4767895  45.6394339  88.6678505  87.2548008   8.4886247  79.3338156
  86.4643383   8.6438179  78.8167858  86.9489765   8.0004144  80.0982475
  12.2374344  93.1736946  23.9103866  12.9064655  93.7920284  24.2041516
  12.6748049  92.3224068  23.9257288  88.2366467 105.3030014  26.9687128
  87.8096771 104.6778488  26.3829541  88.7342453 104.7583771  27.5786471
  67.4876595  30.1870513  77.0638132  67.8304768  29.2965293  77.1391582
  67.6261950  30.5710793  77.9295826   0.1038038  78.7529802  17.9123926
   0.6033308  78.5521460  17.1209574   0.7539707  79.0962315  18.5253298
  85.5125904  23.8544083  74.0949726  85.5136776  22.9060769  73.9649820
  85.1353455  24.2062521  73.2886744  84.5659733   8.3176506  91.0536766
  84.5461750   7.4436378  90.6638718  83.6445522   8.5465175  91.1754704
  22.3815060  74.5764351  23.1313109  23.1481457  74.5833683  22.5582099
  21.8576360  75.3225517  22.8395939  11.3682032   8.1830537   2.9817957
  11.5133047   7.5800121   3.7108484  10.4170680   8.2812572   2.9378635
  99.4222450  96.1732101   3.9648196  99.1506863  96.5270138   3.1178781
  99.2658329  96.8865204   4.5836475 101.4379311  92.2296047  43.0483437
 102.3197937  91.9242668  42.8354502 101.2020206  92.8059483  42.3214197
   5.5722439  68.8334513  27.1361041   5.5314589  69.7249413  26.7899656
   6.4758116  68.5577440  26.9818830  20.1093197  52.4950743  24.5485020
  19.7984624  51.5911913  24.4975734  19.9648571  52.7470016  25.4605842
  45.4111624  11.6252422  21.7026997  45.9133959  12.0223272  20.9911394
  46.0615253  11.1470175  22.2170568  86.1615276  47.0031214  88.4056950
  87.0199108  47.4063540  88.2759857  85.8925724  46.7254496  87.5300217
  62.3156691  14.5918655   1.9276515  62.5259495  14.7708809   1.0111544
  61.3938570  14.8349214   2.0137736  52.3058844  41.0721684   9.2589462
  52.8971291  41.8223476   9.1966009  52.7599049  40.4565477   9.8343670
  36.4684319  34.0879059  46.1973906  36.7741227  34.9383903  46.5127659
  37.0883703  33.4587359  46.5662479  94.6295834  90.4279995  67.2014046
  94.1445827  91.0335350  67.7620602  94.3736649  90.6688023  66.3110352
  93.4779263  50.0540590  91.6327858  93.5075951  49.7374916  92.5356388
  93.3866405  49.2614555  91.1039448  58.3002520   9.6901566   9.0200537
  57.4068165   9.3509269   8.9659297  58.1912184  10.6288123   9.1725957
  44.4320631  -0.0860733  13.1058252  44.7586489   0.7688320  13.3863795
  43.5441399   0.0875260  12.7932680  32.6561189  44.6599293   5.9176040
  33.5684657  44.5133448   6.1673439  32.5701809  45.6121969   5.8724809
  91.7802525  46.2661076  85.1299667  91.1303902  46.7207527  85.6658840
  91.2796211  45.5977249  84.6621323  76.9225311  22.4182439  75.2179241
  77.7610302  22.1401620  75.5864620  76.8827248  23.3579850  75.3954935
  33.7411833  68.6377478   5.8707571  33.8616419  69.5871639   5.8526689
  34.5228171  68.3055115   6.3122320  95.6832409  79.7762251   4.9467883
  95.3126907  80.2857780   4.2261750  96.5701389  79.5619965   4.6573964
  75.9443331  54.3242931  79.1212368  76.8727350  54.2046261  78.9212751
  75.7148170  53.5647774  79.6566725  71.3238287  83.9682674  45.7331085
  71.2463427  84.8148823  45.2932501  72.2571325  83.7602329  45.6894970
  81.5967560  48.6150646  87.0523834  81.4108372  49.3617296  86.4830399
  81.5876293  47.8585863  86.4659691  92.3815250  86.3423061  33.1217670
  92.8512001  86.4119816  33.9529014  92.8407288  86.9441509  32.5359750
  12.3884189  73.8059139  14.9402523  13.1666303  73.3273220  14.6546471
  12.7250612  74.6454430  15.2534473  96.4051437  60.6430578  81.1097431
  96.7376041  61.4873838  80.8050919  97.1866989  60.0992250  81.2079906
  85.2317715  77.5676298  15.5266285  85.6064224  76.7162895  15.7526541
  85.9367180  78.1923580  15.6969345  14.9553575  94.7850416   0.9588989
  15.1829328  93.8974712   0.6820187  14.0138139  94.8515604   0.7997975
   3.2593480  86.8657780  21.2137723   2.3373762  86.6116810  21.2542009
   3.4090269  87.0783710  20.2925587  10.3875124  71.5746593  43.0206966
  10.1171947  72.4692583  42.8136921   9.8590857  71.3348627  43.7819433
  79.9308014 104.6985149  89.8200321  80.2015400 104.8332405  88.9118576
  80.7395077 104.4739532  90.2802467  90.6263828  28.4978795  73.3282566
  91.4555454  28.0876374  73.5740519  90.4140377  28.1170177  72.4761486
  52.9278088   7.6807570  11.3447797  52.5157404   7.3406291  10.5505860
  53.1790924   6.8996030  11.8376160  49.5772076  83.5966396  27.4511409
  50.0602245  83.3819294  26.6531253  49.5418930  82.7735519  27.9385042
  63.2289219  14.4091487  16.7676365  63.3111525  14.9318016  17.5653231
  64.0928411  14.4589972  16.3585067  14.2876160  95.2157116  24.7627330
  14.9633813  94.9177837  25.3716755  14.6361935  96.0288143  24.3972254
  33.2346678 104.3637657   3.5004449  32.4212027 104.8606777   3.5875067
  33.8586402 104.8257637   4.0603054  57.5063896   2.2634712  14.1992569
  56.7677641   1.8376152  14.6343565  58.2564354   2.0782951  14.7643828
  30.8834505  31.6724300  16.4017642  31.0607290  32.3231459  15.7225192
  29.9840736  31.8515277  16.6761291  42.8305483  20.3193831  27.2869444
  43.1274462  19.5198250  27.7214432  43.4051037  21.0048032  27.6279974
  81.3765240  68.8551426  81.9338322  81.2390995  68.0284691  81.4712906
  81.2475967  69.5279598  81.2653065  11.3824475  69.5246458  12.4158823
  10.5899072  68.9878893  12.4179959  11.0629821  70.4237700  12.4916971
  40.9496403   4.5874801   2.2486182  41.6021538   4.7836953   1.5763381
  40.6346893   3.7108904   2.0281014  29.0954423  81.7428398  32.5881600
  29.4675803  80.8613014  32.6133370  28.1508303  81.6062260  32.6607943
  31.8083835  12.9690742   1.5069222  31.4920759  12.3534155   2.1680918
  32.2745442  12.4225497   0.8742810  73.7005329  53.3077574  88.0598164
  73.9898539  54.2073631  87.9074097  72.7528048  53.3354425  87.9283714
  91.9273758  49.1759396  78.6470938  92.4418831  49.5080948  79.3827486
  91.5606594  49.9597788  78.2380199  35.1695347   3.9374703  12.9649580
  35.8354974   4.0918833  12.2949719  35.5994654   3.3683804  13.6033368
  72.8888607  23.1049347  15.1158452  72.1372700  23.0092931  15.7008195
  73.0864143  22.2124434  14.8318315  68.8843679  29.4830799  90.1468468
  69.7376204  29.2735434  90.5266953  68.7609959  28.8285708  89.4593620
  10.8869755  84.0142155  13.9554310  10.9844971  84.8774910  14.3572736
  10.8144963  83.4121037  14.6960020  21.9310689 105.2108669  33.7811685
  22.3823643 104.6211529  33.1771803  21.4361691 104.6295452  34.3585491
  81.0334394  49.1256191  91.3134501  81.4320223  48.3314945  91.6694440
  80.1073406  48.9049484  91.2140748  46.1467552   1.6506933  27.1643925
  45.2576399   1.6800965  27.5177217  46.3874722   2.5693822  27.0448136
 105.0420189  89.0895271  19.2934513 104.4864845  89.0206528  18.5170007
 105.4096222  89.9721241  19.2474222  17.7917349  16.7357564  39.8961997
  17.8690040  15.8193016  40.1614714  18.4942925  17.1819985  40.3689718
   6.4505064  48.9421415  76.4299345   6.5764683  49.4220352  75.6113577
   5.5786890  49.2016315  76.7279768   1.0725801  93.8287544  60.8939600
   1.3519268  92.9164028  60.8176947   0.1526197  93.8204479  60.6296968
 105.3861046  75.9323931  39.4726324 105.4109955  75.3435040  40.2268362
 104.4706440  76.2053061  39.4119573 102.7952003  89.4237041  24.3507123
 102.9252243  89.1751099  23.4355474 102.2344494  90.1984501  24.3110991
  61.0009432  97.3613644  57.6398230  60.9347439  96.6728592  58.3014917
  61.3271046  98.1232548  58.1187630  47.1582556   7.5434291  13.6151707
  47.9707861   7.8011268  14.0506256  46.4701986   7.7600169  14.2443776
  76.2468386  67.0815325  88.5225010  75.6571484  66.5282965  89.0347767
  76.5919209  67.7127743  89.1539192  12.9867041  85.4261208   9.7233295
  12.4434161  85.0233841  10.4007256  12.3877954  86.0002041   9.2458636
  78.6923504   0.6570220  15.1885378  77.7452135   0.6111210  15.0579572
  78.7993193   1.1751708  15.9862292  80.8142376  52.7249098  82.3206615
  81.3465595  52.6978350  81.5255928  80.1948547  52.0022392  82.2189236
  18.7535560  73.2977581   2.5250027  19.3575788  72.9300499   1.8798839
  19.1024971  74.1696548   2.7101243  16.0239291  80.1734638  14.5785487
  15.5062878  80.0218868  13.7877858  15.7776618  79.4594288  15.1665473
   2.9502201  95.1118851  23.0458736   3.4954250  94.3372059  23.1831956
   3.5075441  95.8458996  23.3044291  26.5769529  26.2446046  90.0384521
  26.5579295  27.0503187  89.5220280  25.9580135  25.6627274  89.5973587
   3.0185574  81.9702721  36.2913108   2.1822543  81.9978619  36.7561412
   3.6168158  82.4724007  36.8446445   3.2427379  46.8809795  88.9532185
   4.0336418  46.3420677  88.9698887   2.5959104  46.3722420  89.4421196
   4.4452569  98.9827156   4.8928040   4.3093750  99.8986530   5.1353395
   4.9938983  99.0212536   4.1093889  47.4108076 101.2244511  15.8997250
  48.0604219 101.7587566  16.3566208  47.8779888 100.8771038  15.1399064
  34.4361997  95.1125431   7.6855212  33.5144830  95.3447056   7.7985317
  34.6938968  95.5445480   6.8711543  93.6197567  78.7111187  17.1563399
  94.0455627  78.0786324  16.5776467  94.2113781  79.4635391  17.1654654
  95.9191227 102.6036263  17.9890358  95.6572628 102.9879093  18.8256919
  95.0932884 102.4105263  17.5452459  50.1048517  11.6453767  23.8444710
  49.5098209  11.5298021  23.1036544  50.5470943  10.8008325  23.9304829
  13.8771689  57.2828150  91.4469242  13.5461581  57.9147959  90.8087540
  13.5937846  57.6269627  92.2939682  41.5723372   4.1501275  11.7390573
  40.7232714   4.5310771  11.9631052  41.9288588   4.7357708  11.0711157
  90.1897049  39.0782928  59.7933722  89.4872093  38.4297323  59.7475004
  89.8234940  39.7914553  60.3163671  74.0142059  28.1773138  80.9956074
  74.6232796  27.8572321  81.6610432  74.0026712  29.1265583  81.1182308
  84.9266338  45.6169510  64.7020435  85.4455757  44.8972511  64.3429232
  84.8257828  45.4002762  65.6289291  90.5493832  90.9830475  47.9203606
  90.0777721  90.5805588  48.6496162  90.8204937  90.2452469  47.3741102
  66.8679380  44.4412041  88.8151455  67.5407887  45.0059223  88.4348774
  66.8202972  44.7098255  89.7326469  10.6747293  53.1002617   1.7015356
  10.4726017  52.2123575   1.9964996  10.2130270  53.6684227   2.3181844
  19.5652461  78.6770964   4.1056493  19.1075003  79.2155743   4.7512060
  20.1382756  78.1142616   4.6263078  38.5684109  12.0239604  14.8592508
  38.1572294  11.2870908  15.3111207  39.4143152  11.6841018  14.5674109
  27.6557827   0.3325188  39.9521804  28.0081272   0.0943363  39.0946507
  26.7630219  -0.0127315  39.9486065  35.1914930  97.8933620   6.8740314
  35.8298540  97.6053333   6.2215233  35.6035113  97.6966095   7.7153182
  51.4021444   2.8577259  48.4631491  51.4843988   3.1532669  49.3698597
  50.6714249   3.3658963  48.1109524  30.9900904  98.4092236   7.0409697
  30.2371907  98.0343246   7.4979377  31.0512352  99.3043900   7.3744166
  61.1254740  17.3582482  38.5904789  61.4691305  16.5983593  38.1206918
  60.8277512  17.0066047  39.4294882  59.0337944  31.7697120  25.5218911
  59.3702269  31.3528252  24.7286415  58.4951019  31.0958576  25.9365749
  37.4484897   2.4688523  14.5368266  37.6314187   1.6566804  14.0644443
  36.5534830   2.3621495  14.8590207  90.9666824  24.0624690  90.2776814
  90.2640152  23.9223552  90.9123898  90.5142117  24.1923189  89.4442272
  46.4411545  26.9814610  17.0624471  46.0289192  26.9175220  16.2009335
  46.3706970  26.0995102  17.4277306  64.1317463  12.1919978  47.6608467
  64.1133404  12.1469772  48.6168098  65.0187111  11.9199073  47.4252892
  38.4030144  30.7411816  91.4355196  37.4691956  30.7471992  91.6457105
  38.5947220  29.8278572  91.2226522  37.9872727  97.5417519  79.4273520
  38.2370734  96.6254902  79.3077850  38.6914301  97.9147339  79.9577093
  16.8816805  82.9369831  17.6477921  16.5183830  82.6527596  16.8090630
  16.3157570  82.5304127  18.3040404  75.0789976  34.5915914   7.9547775
  74.2685413  35.0986123   7.9066151  74.8953724  33.9070129   8.5981035
   3.4277156  76.9919634  22.2895384   3.6560103  77.4979734  21.5097523
   3.2888010  77.6504803  22.9701924  38.0803895  22.0551205  24.3365145
  38.4498501  21.2047815  24.5745301  37.8397822  21.9621730  23.4147215
  83.4173012  86.9979763   2.6408726  83.4804630  87.0997334   1.6911948
  84.0466785  87.6281071   2.9916590   2.0957212  98.1903076   7.5966513
   1.4188123  98.8670349   7.6042449   2.8789178  98.6385155   7.2773618
  47.4180698  88.8846397  45.2727509  47.6722383  87.9872608  45.0574589
  48.2455778  89.3320751  45.4495811  14.2100453  18.1914151  21.7845368
  13.6784554  17.4833822  22.1483135  15.1099896  17.9548454  22.0089626
  21.1775303   5.3424412  28.7746954  20.2586102   5.6103629  28.7806344
  21.5627408   5.8241594  28.0427170  80.9619713  39.2608738  78.9890385
  81.6931152  39.7080874  79.4152498  80.2147579  39.4203329  79.5656347
  39.1036367  57.8174686  86.4774227  39.5787334  57.5975609  87.2787762
  38.3955836  58.3919334  86.7687607  49.6190023  21.1907387  28.5969949
  49.0179062  21.9352174  28.6227703  50.0659895  21.2728548  27.7545643
  91.6792107  35.9335923  86.9008255  90.7361984  35.9417701  87.0648575
  91.8897438  35.0105810  86.7595482  36.4082456  13.4025049  31.0343075
  36.5046358  12.4514568  31.0837913  36.0099554  13.6466682  31.8697596
 104.9742413  85.2635002  60.7287073 104.9784088  84.4471359  61.2284660
 104.0481567  85.4351044  60.5580091  31.7333460  15.7385647  21.6619825
  32.3397851  16.0872996  22.3153186  32.1478438  15.9345257  20.8217311
  53.7767220   4.4117162  16.5125120  54.5429134   4.3033075  17.0759237
  53.1250572   4.8330879  17.0728791  50.3889132   0.4380701   9.0133011
  50.2917957   1.0531786   9.7402412  50.8915615  -0.2891248   9.3804002
  85.5467796  42.4139881  80.3669548  85.1922512  42.0533276  79.5542622
  85.5713272  43.3593369  80.2188206  90.4484272  16.0980010   9.8016089
  89.5117188  16.1232328   9.6062493  90.5025864  15.6813419  10.6616640
  24.7057343  88.9045715  19.5522702  23.8737702  88.4429932  19.4473231
  24.9471116  88.7582302  20.4669046   9.9509782  92.7263832   9.6349937
   9.7173148  91.8049717   9.5225501  10.7005644  92.7124786  10.2301061
  29.6755576   6.9428003  18.7021637  29.5512605   6.9655293  17.7533400
  29.7525001   6.0119259  18.9114118  30.0405264  31.7153478  26.6927505
  29.5914888  31.8341565  27.5296998  29.4574594  31.1498928  26.1862683
 105.1832771  34.7583938  88.5467052 105.3801346  35.6845188  88.4061050
 104.9571037  34.6998429  89.4749546  34.7713637  82.3200607   6.8544275
  35.6291676  82.7185154   7.0015436  34.9477124  81.3801384   6.8134874
 100.8896542  87.3544884  31.4295673 100.7756615  88.2306480  31.7977881
 101.8069839  87.1406174  31.5998459 108.1716347  60.7123184  20.2529550
 107.9839134  61.4035654  19.6179950 107.7046490  60.9806967  21.0442424
  98.1655884  79.3637085  11.7143738  97.5059032  79.5336151  11.0419309
  98.8354588  80.0313473  11.5668380 105.7940197  98.5564804  14.1622400
 105.5640221  97.9899216  14.8986852 105.8550549  97.9631901  13.4135664
  77.2236633  49.2742968  84.3740559  76.4817810  49.8446560  84.1727257
  77.9623175  49.8726845  84.4861126  19.5982373   7.9906642   4.7189113
  19.2590809   7.9010016   3.8283131  20.5488205   7.9380393   4.6196336
  97.0613670  49.1008711  75.2604723  96.1612797  49.2514372  75.5492544
  97.0843124  48.1743526  75.0211716   1.5284845  94.2439556   2.9661280
   1.0897320  93.4337902   2.7065992   1.4347346  94.2726898   3.9182925
   6.8809777  83.9769554   6.1146432   7.7837402  84.2938519   6.0858589
   6.6050631  83.9562893   5.1983052  51.8152714  37.7698803  27.0941544
  51.4888954  38.5175824  26.5935063  51.1757040  37.0761824  26.9330072
 109.6361351 101.5411758   5.4268664 110.4424000 101.9664669   5.7189012
 109.9118328 100.9737682   4.7069517  82.7469444   6.4365274  90.0740910
  81.9273758   6.7364585  89.6809387  82.4961472   5.6780934  90.6014538
  90.4959202  68.1663561  39.6327114  90.7732964  68.3223009  38.7299514
  91.1673164  67.5869083  39.9928570  63.7575102  11.8177927  22.0757294
  63.7789631  12.6270592  21.5649843  63.4127569  12.0819747  22.9287148
  14.9300575  70.8176851  16.1260223  14.3032515  71.4792109  15.8332324
  15.3241384  71.1930323  16.9134521  79.5475817  69.5464325  84.2449284
  78.6697817  69.6485519  83.8771343  80.1071835  69.3797970  83.4864426
  59.1192102  38.9483929  89.1984653  59.8268747  39.5536208  88.9767838
  59.4663191  38.4294987  89.9240589  98.2202625  37.9928732  72.2460842
  98.6612415  37.4126744  71.6254807  97.9843426  37.4244952  72.9792404
  12.5887740 101.0767269  35.0214744  12.3792326 100.5044079  34.2833877
  11.8946576 101.7358303  35.0180674  97.6022625  67.5216579  60.7095623
  97.1135521  68.3348274  60.5824709  96.9283581  66.8569469  60.8518600
  44.5438480  50.0562716  77.7427673  43.9598227  50.6017637  77.2159004
  44.0986729  49.2105532  77.7957630  82.1535778  50.3365612  89.3455696
  81.8950272  49.7344303  88.6478424  81.8638134  49.9083138  90.1511002
  56.0753393  48.6411381  65.7271910  56.9149590  48.3051062  65.4135752
  55.5814505  48.8332796  64.9300766   6.0969603  85.8371353  24.6151423
   6.0203713  85.8785820  25.5683732   6.5885168  86.6240788  24.3799114
 102.8690052  75.6353378  36.6137171 102.0882511  75.9629488  36.1672544
 102.7879429  75.9630251  37.5094199  25.7535601  87.0195293   3.5042834
  25.4885530  86.3222790   2.9044110  26.5275216  86.6725063   3.9478993
 110.9464836  70.8537197  70.4435682 110.9387970  70.9968281  69.4971561
 110.5328751  71.6364622  70.8075285  26.4775443 104.7690773   5.9886432
  26.1054611 105.4909420   5.4819918  25.9316611 104.7209358   6.7734516
  65.3941774   7.5849074  79.9369431  64.9482393   7.0609725  79.2714596
  66.3097620   7.3108721  79.8836613 101.3922024  64.2109203  71.3009024
 101.2973976  63.4352589  71.8537092 101.5948963  63.8628674  70.4325724
  69.6935177   7.2295314   8.5085678  70.1342249   6.5550292   9.0253425
  70.1147747   8.0473346   8.7730896  31.0587859  83.6447334  16.9848776
  31.5414929  84.4688892  16.9216585  30.3138280  83.8463116  17.5511241
   6.5285569  89.8566723   8.2014269   7.4239773  90.1417637   8.3835721
   5.9811890  90.5864143   8.4914207  74.4577591 105.9995479  40.4113054
  75.0194733 105.2281443  40.3361607  73.7332337 105.7149123  40.9683371
   2.0728880  87.5068855  14.2117298   2.7310151  88.1678486  13.9967000
   2.1565869  86.8513966  13.5192323  31.1728072  63.8635969   9.6906823
  30.4988766  64.3384838  10.1770246  31.0193181  64.0998650   8.7758875
  49.9809694  13.5718143  16.9660699  50.1488876  13.8218379  16.0574877
  49.0271378  13.5838509  17.0454299  58.0468750  27.6534867  26.3182878
  58.5257387  28.2692337  25.7635069  58.3606625  27.8352666  27.2041345
  70.9636927  78.3847189  88.6636829  71.6338730  77.7114153  88.7809563
  70.4068565  78.0486441  87.9613876  96.3348675  80.6602001   9.8224139
  96.1572361  80.9763241  10.7082725  95.5359650  80.8568668   9.3332344
   6.1198306  93.9330006  26.7915678   5.2004099  93.9385128  26.5253592
   6.6076714  93.9594650  25.9684372  98.9592648  46.6148901  89.6350574
  98.1997299  46.2846375  90.1149178  99.5173836  47.0038891  90.3084183
  37.5298214  14.4332325  15.3334010  37.9229140  13.5683298  15.4502428
  38.1340528  15.0321782  15.7720363 103.0149364 100.0398827  31.1604977
 102.1678734 100.1356030  31.5958762 102.8727341 100.3887463  30.2805519
  63.4623814  49.7748566  85.9684658  64.0706968  49.1397858  86.3464546
  64.0256834  50.4364920  85.5670261   9.8922360  46.2998199  79.1101837
   9.9465728  45.8914042  78.2461977   9.9713963  47.2379017  78.9370728
  16.1683226  89.2112923   4.9169344  16.4612079  89.9806786   5.4052955
  16.6411078  88.4805012   5.3152537 107.2688103  52.0501471  91.1315060
 107.5225925  51.1466980  90.9428310 107.5457478  52.5430155  90.3590965
  71.6164200  46.7898609  91.8860810  71.9474881  46.4417602  91.0581582
  71.5448849  47.7328159  91.7379243  48.5283041  13.5859418  51.4926195
  49.1747856  13.2876527  50.8528376  47.8006172  12.9706478  51.4025259
  54.4172335   4.9083796  12.0712709  54.5880795   5.5061501  12.7990854
  55.1095104   5.0980228  11.4380097  36.9982767 103.9699745   4.9239925
  37.4104714 103.3803368   4.2926040  37.6672769 104.6293545   5.1080638
  76.8962526  48.7769508  66.2972116  76.0750008  48.9213181  66.7672443
  76.7854452  47.9236269  65.8779335  28.6108375  74.6172953  30.7544255
  28.2012343  73.9317179  30.2267528  28.0775404  75.3953838  30.5919337
   6.6135627 102.1752644   8.7388504   6.2505472 103.0440617   8.9109778
   7.0801872 101.9470596   9.5428520  91.9215965  46.2943316  80.2862358
  91.9266415  46.6540098  81.1732769  91.1596584  46.6964102  79.8690748
  85.3058529  18.2471848  88.6334419  85.9553528  17.7226067  89.1016293
  85.7714081  19.0493417  88.3967018  94.1025639  52.9281282  74.7737551
  94.5021629  53.6634159  74.3091011  93.3046436  53.2922363  75.1571417
  98.6576271  37.0410848  74.8606682  98.2913876  36.1726904  75.0279713
  98.1747627  37.6219964  75.4485607  91.5395164  95.0897694  83.2277679
  92.3375988  94.5998955  83.0294704  91.0382366  94.5092773  83.8004589
  42.3324203  10.1356983   2.8787014  42.6479435  10.7347608   3.5553125
  43.0400610  10.1076150   2.2347385   9.2379612  72.4734831  90.9083366
   8.3465785  72.5139427  91.2547874   9.1257948  72.4759436  89.9577332
  34.2299747  88.5709858  19.6324015  34.5162725  87.6704693  19.7851491
  34.7023630  88.8422489  18.8453209 103.7656212  77.8002882  19.9820709
 103.4723854  78.3680582  19.2694151 103.0568790  77.1660614  20.0901151
  76.5693569  57.1144724  84.1087055  77.4864435  57.0910692  84.3818951
  76.4213085  56.2647200  83.6936951  28.2939267  95.1015949  25.0050831
  27.5706029  94.8233223  24.4432974  28.6705160  94.2848969  25.3328323
  29.4565630  94.3873119  33.6152911  29.4111061  94.7080708  34.5160031
  28.6594200  94.7193146  33.2022953  12.9033196  33.5882401  36.4890480
  12.4871480  34.1761374  35.8586431  12.2075486  32.9844308  36.7489481
 110.7083233   0.3713102  83.2663059 111.1034639   1.1600656  82.8948689
 110.9012754  -0.3161937  82.6288509  33.1899285  95.4801559  20.7735538
  33.6814094  94.7695732  21.1855602  33.5316634  95.5212879  19.8803818
  59.4689751  24.2452407  79.9429083  60.1558876  24.8982334  80.0770283
  59.1048956  24.0978551  80.8158112  29.7350383  94.3424034   2.7474380
  30.3860092  94.9217796   3.1434035  28.9110756  94.5829678   3.1710503
  33.2780814  92.6902866   5.4717404  32.4961114  92.9916382   5.9342778
  32.9996204  91.8898201   5.0268310  68.6117506  32.5750518  88.3514214
  68.2973909  32.7707243  87.4687481  67.8230143  32.5824738  88.8937092
 105.9213734  83.7314987  10.8356535 106.0189056  83.4761810  11.7530048
 106.7945957  83.6163807  10.4608595  64.7925949  45.3648949   6.9325781
  65.3726721  45.3558302   6.1712217  64.5708179  44.4448042   7.0756823
  68.0719709  68.8991356  89.1052246  67.4802017  69.5451641  89.4908333
  68.8889647  69.0012360  89.5934200  98.4620285  91.5069962  55.1286602
  99.2792892  91.9312859  55.3899717  98.1846333  91.0222244  55.9060097
  83.8832664  46.8328047  82.2097015  83.6699963  47.5880194  82.7577877
  84.5838928  47.1433210  81.6361713   1.2987347  70.7530212  10.4266644
   0.3779510  70.5607224  10.2494323   1.4170469  70.5281639  11.3495255
  55.4213238  20.6945610  14.7883475  54.6296024  20.6467128  15.3241849
  55.7169247  19.7870100  14.7162104  53.3960342  29.8001790   7.4805903
  53.4648657  29.3544388   6.6363102  52.6902676  30.4353237   7.3592705
  17.2078001  82.7211571   5.4245508  18.0276561  82.6549721   4.9349710
  17.1504653  81.8971348   5.9082180  88.9691639  69.6015692  90.2781200
  88.3243847  70.1698875  89.8568058  88.8643074  69.7729969  91.2139893
  39.1952538  18.5257638  10.3165483  38.2964993  18.5789979  10.6415725
  39.4453049  19.4352555  10.1536620 108.1333733  60.9002733  67.0310163
 108.3613491  61.1030340  66.1237478 107.5866604  61.6346121  67.3104477
  73.2613802  74.6990204  90.8853722  73.1887293  73.7453651  90.9240150
  73.5834646  74.9499655  91.7511272  90.2042103  18.7827408   8.8393074
  90.3987885  18.9442468   9.7625005  90.3411674  17.8421092   8.7266642
  34.9534440  99.5643234  13.0148530  35.2511239 100.4740524  13.0160093
  35.0631952  99.2775536  12.1082377  88.9849567   1.3099508  17.9996943
  88.8130856   2.0282778  18.6085427  89.8361492   0.9654257  18.2699120
  85.0378418   3.8250932  30.3452396  85.9328747   3.5688773  30.5677104
  84.5072269   3.0604300  30.5687928  53.7154675  16.9299889  85.3102016
  53.5927200  16.0070205  85.5322266  53.4956741  17.4009705  86.1140060
  42.4426317  25.4191828  14.4526160  41.5128660  25.5868411  14.6064162
  42.7167654  24.8868847  15.1994383  24.9601245  72.9009485  85.9788799
  24.7113824  72.0079374  85.7403755  25.8558393  72.8206205  86.3067150
   6.9494408  46.9916677   5.7229167   7.4134988  47.1870756   4.9088541
   6.8957138  46.0362244   5.7445723  54.1464758   1.9808851  15.0294375
  54.0675735   2.7486613  15.5955875  53.8990402   2.2974816  14.1606593
  11.8017411 104.0602875   2.2925401  12.2668457 103.2294083   2.3902689
  12.4931896 104.7221279   2.2828832  74.2519855  54.5104313  15.6375182
  74.5503330  54.2922735  14.7545540  74.7907352  55.2587843  15.8943117
 105.2771473  69.2118645  91.0539436 104.4463730  69.1796112  91.5282822
 105.7043171  68.3809900  91.2622833  31.5762806  19.5704579  12.4798465
  30.9447551  18.8542366  12.5464213  31.8810153  19.7052670  13.3771729
 112.3246956 102.0421505  89.1329861 111.7833519 102.7947426  89.3712807
 113.0993652 102.4250984  88.7213135   3.4003463  75.9365940  81.8143749
   2.9019669  76.4778471  81.2020969   3.9221996  75.3610277  81.2552452
  83.9010239  63.8195086  89.6588421  83.3150959  64.5656204  89.5314217
  83.6347198  63.1888533  88.9898205  47.7736235   5.8263838  17.6848423
  48.4681702   5.5760765  17.0755935  48.1013966   6.6194105  18.1089950
  39.4525266  10.9587765  23.7747502  40.2665472  11.3829446  24.0461946
  39.7354078  10.2221799  23.2328677  64.1752529   9.0252793   3.3169958
  63.4846258   8.8582426   2.6756161  63.9117670   8.5240155   4.0887091
  96.7233184  91.3706262  91.6016037  96.8024066  90.7071884  90.9161656
  95.7812837  91.5192898  91.6834903   0.3193864  61.8482542  83.3407402
   0.3409394  62.7192402  82.9443264  -0.6057269  61.6955757  83.5333252
  10.7007945  30.6767297  72.0259142  11.3295519  30.9175181  72.7062941
   9.9149209  31.1808801  72.2367764  20.1771474  99.5713043  10.4063892
  19.7255409  99.5508862  11.2501109  19.4889832  99.7689724   9.7711021
 110.4428196  76.1265230  84.0172768 110.5976200  76.9964933  84.3852711
 110.4635429  75.5395889  84.7731304  51.1180353  94.5559883  17.6691020
  51.4149141  93.7954426  17.1694386  51.9219112  94.9445915  18.0140662
  48.8881826  25.3174376   7.4084783  48.0451107  25.2717757   7.8594530
  48.6635780  25.5233645   6.5010762  79.8746634  20.9523416  33.2212210
  80.4303932  21.6451716  32.8643179  80.4592991  20.2000761  33.3135939
  52.2693396  10.8536792  33.8671517  52.4561787  10.0019944  33.4722424
  51.3345480  10.9895384  33.7124181  91.7192745  55.7639122  72.9350090
  92.0423126  56.6112804  73.2413387  91.1318302  55.9791899  72.2105789
  16.1357129  96.9679928   1.8070617  15.7454324  96.1578655   1.4790317
  15.7611704  97.0775127   2.6811075  95.8243561  86.5859032   9.5573521
  95.9421825  87.4872494   9.8572272  96.5144253  86.0934639  10.0017977
  20.1736760  90.1796246  10.4083657  20.2355051  90.7624149  11.1651826
  20.6051493  90.6589890   9.7010618  58.8647270  30.8994079   9.3248039
  58.5175562  31.0542154   8.4463185  58.5967302  30.0046229   9.5340103
  20.0416589  81.6763020   7.7389604  20.8944511  81.5628719   7.3193085
  19.9576724  82.6222420   7.8589118  88.8757324  55.3880119  44.1868925
  89.2243385  55.5139685  43.3043766  89.6240425  55.0803471  44.6983624
  89.2842388  93.7410450  34.4118071  89.5280075  93.5623455  35.3200316
  88.8925266  94.6140862  34.4362903   2.4088778  44.6124411  81.1970139
   2.4953254  44.0251207  81.9478893   1.7315960  44.2089987  80.6540966
  99.0363407  68.3386374  89.1921520  99.5546913  67.8377724  88.5623169
  98.5189533  68.9377069  88.6539555  35.7118821  10.1816797  13.9996195
  35.3496599   9.4761407  14.5355678  35.7045245  10.9470403  14.5744264
 109.2135239  73.2588339  86.1253929 109.7911930  74.0117311  86.2506199
 108.3385658  73.5927153  86.3233757  77.4831009  23.0168319  42.6382160
  77.8688002  23.0608773  41.7632723  77.8135967  22.1966290  43.0046463
  79.1684103  37.5932264  21.2758684  79.1630650  37.6074123  20.3187871
  78.9743471  36.6838431  21.5030146  73.6826611  10.8354199  33.4150124
  74.6114635  11.0472119  33.5082841  73.5870600  10.5757558  32.4986792
  43.5995007  24.8023009  33.4417081  43.7724257  23.8732958  33.5942721
  42.9360056  25.0323939  34.0921450  62.1505880  28.7411308  24.8760080
  62.5858498  28.8265109  24.0277815  62.5140762  27.9394794  25.2521205
  31.8375611  86.0182762   4.6172330  31.8662381  85.1101017   4.9182582
  31.5653920  85.9585953   3.7014857   4.7653908  93.2418346  13.4904671
   4.9168614  92.7019882  12.7146709   5.2273655  94.0598392  13.3069646
  74.6296787  51.0429335  83.0945969  74.7221136  51.0556316  82.1419525
  74.6538067  51.9651461  83.3498859  37.0918870  25.7872748  20.1956701
  37.7875733  25.6635356  19.5499623  37.2484708  25.1063395  20.8499193
 106.3920021  31.5206265  85.5721283 106.4605045  31.5904212  86.5243244
 106.2727737  32.4223137  85.2738476  62.1772861   8.4428805   1.3845252
  62.6918268   8.1474459   0.6333972  61.4791965   7.7931941   1.4670725
  69.1346025  14.2719007   2.9871747  69.0189219  13.6525941   3.7078053
  69.6322346  13.7848687   2.3303682 105.2653408   4.7827148  31.0409331
 104.8197269   4.3702394  30.3009868 104.9808979   4.2784241  31.8031788
  91.3231945  93.8362789  88.7379074  91.4642525  93.4483242  87.8742886
  90.9489441  94.6981049  88.5550880 112.8520203  43.0634689  79.9801302
 112.3314190  43.4622192  80.6774139 112.2631073  43.0384684  79.2259502
   9.2374486  87.1584797  54.7955418  10.1308894  86.8953609  54.5747137
   8.6814934  86.5424347  54.3184328  62.3189592  20.5239248  31.3787103
  61.6865158  20.8204150  32.0331860  61.9295168  19.7303307  31.0115933
  72.7677774  35.5917859   7.8951025  72.5471878  36.2474036   7.2334850
  71.9416094  35.4201818   8.3470213  69.6334982  81.5890121  89.0407562
  69.8501301  81.5177631  89.9703884  70.4749823  81.7376900  88.6094475
  49.0300939  49.7799318   0.1725086  48.4787080  50.0893895   0.8911499
  48.9075849  48.8306157   0.1682839 102.4705791  66.1367178  77.6070309
 102.9569244  66.8852329  77.9526091 101.8803596  65.8858538  78.3176231
  72.4084044  30.7246399   2.6235902  72.0447779  31.4165688   3.1760770
  72.1256351  29.9111485   3.0413297   6.9312787  74.7792912  22.6392221
   7.7791309  74.5030260  22.2912908   6.9687581  75.7357121  22.6300645
 107.1070480  99.9653339  42.7731991 107.0065880  99.8458290  43.7175798
 106.2637615 100.3146172  42.4849272  38.1824064  21.2077594   7.3709077
  37.3434567  21.2631607   6.9133866  38.2160974  20.3101039   7.7015305
   9.1325414 101.6318130  32.7448392   9.4731522 102.3827839  33.2309127
   9.6892673 100.9006691  33.0126452  38.7743998   7.6635033  11.5221655
  39.0668106   7.5315523  10.6203246  38.4633756   8.5685205  11.5431166
  90.7683945  69.5619011  58.7527084  91.0910988  69.3603039  57.8743839
  90.7743454  70.5180836  58.7964439 111.1256409  83.3732224  71.3536787
 111.4399052  83.3409119  70.4501152 110.3030777  82.8839397  71.3388157
 110.9888935  64.9235916  90.1721668 111.3503075  65.7361221  90.5262947
 110.3487110  65.2100849  89.5207596  65.7541990  29.1359305  14.7909153
  64.9624443  28.9119554  14.3018365  66.1384678  28.2909560  15.0245500
  46.4771318   4.8111069  39.7555804  47.1962595   4.2169750  39.5408702
  45.9141302   4.7952315  38.9816236  37.3391247  15.5196393   7.5732887
  36.6332483  15.0301385   7.9956126  38.1236911  14.9954164   7.7341551
 101.6017723  58.9001560  73.3563805 101.3624859  58.5878611  74.2289925
 102.2729683  58.2863808  73.0580473  78.2024765  20.9012222  10.1709473
  78.7150717  20.3022218  10.7137907  78.8461876  21.3112879   9.5932651
   2.8197193  31.3910532  77.8801203   3.0317983  31.4225984  76.9472408
   2.5175416  30.4947352  78.0268669  33.9647388   9.5437199  11.4704680
  34.1501379  10.1518250  12.1860576  33.5536861   8.7912714  11.8960154
  85.9162140  23.8498116   7.0139641  86.6874313  23.2828403   7.0142508
  85.8679390  24.1880488   6.1198193  87.7856255   1.2216430   8.6339796
  88.6689377   0.9035039   8.4474528  87.3623753   0.4970960   9.0945470
  -0.0599116  91.1322403  85.0552559   0.7627947  90.7149124  84.7998428
   0.0986940  92.0684052  84.9341297  28.4147358  30.1842546  24.9777913
  27.6584172  29.5976543  24.9884748  29.0487719  29.7472525  24.4092345
  45.8705950  20.0069594  15.3273904  45.3551579  20.0707650  16.1314344
  45.5789185  19.1913700  14.9199975  10.4378164  49.9842119  85.4260349
   9.9995637  49.7980022  84.5956802  10.2358818  49.2287922  85.9781170
  86.6585445  25.7120943  17.4109364  85.7367802  25.4653692  17.3353493
  86.7539024  26.0076642  18.3163512   0.9812754 101.8773174  16.2985218
   0.5025542 101.0636139  16.1405993   0.5516507 102.2637177  17.0616388
  11.0320568  49.5011473  75.3067636  10.7115030  50.1167440  75.9659433
  10.3787971  49.5367527  74.6080399  55.4324770  99.5927525  68.4975433
  55.3945494 100.4925728  68.8217592  56.3555908  99.4529152  68.2865000
  92.0984268  68.4962225  87.3194218  92.7372646  67.9297161  87.7520657
  92.5969505  68.9382076  86.6321373  74.9870825  58.5134172  82.2083378
  75.3712082  58.0552816  82.9558563  75.1079941  57.9138470  81.4720440
  55.0693464  10.0481939  13.0847740  54.2901945  10.5121410  13.3912170
  55.6141853   9.9530268  13.8660085 103.9113140  13.5964179   4.2993829
 104.1536999  14.1691744   3.5717633 103.0077171  13.3415735   4.1128504
   3.3883429   7.8008789  41.5365362   4.1606179   8.3285928  41.7398643
   2.7805540   7.9794079  42.2541380  46.3301325  28.8707995  38.4268928
  45.9229279  29.4333005  37.7680993  47.0884991  28.4917855  37.9825282
  56.5379953  34.3870330   5.2478492  57.2387123  33.7362099   5.2071148
  56.4406538  34.5760798   6.1811322  88.3357143  50.2835035  85.8957767
  89.2212009  50.6113148  85.7386780  88.4543705  49.3515921  86.0793209
  13.4025145  99.1477966   9.5344609  12.6942146  98.5074615   9.6016514
  12.9564917  99.9917507   9.4635487  26.3635182  35.4708219  42.7110958
  26.5294790  35.1531124  41.8235445  25.4362011  35.2873969  42.8616667
  84.3442535  40.0790024  84.8955441  84.3476963  40.5167341  85.7467937
  84.3160248  40.7933235  84.2590141 109.3845940  52.4921656  63.1946087
 108.7291431  52.8041935  62.5707102 109.8767662  51.8275642  62.7126265
 106.3435555  89.6667671  87.0785618 105.9978485  90.3971863  86.5655327
 105.7063770  89.5457649  87.7825451  78.4050608  30.1005864  18.7479579
  78.2386875  30.9330392  19.1901958  78.4763002  29.4623446  19.4577491
  21.2718034   9.0275437  38.0352163  21.1250162   8.4792429  37.2644687
  21.9479728   8.5666251  38.5317850  80.9060860  60.9942293  58.8938141
  81.5972710  60.5112123  59.3467999  81.3472176  61.4003992  58.1477118
  10.2210748  94.6366024  23.0717516  10.8998871  94.0580559  23.4192133
  10.2113748  94.4568729  22.1316266 104.8687363  53.7885332  89.8303890
 104.0253353  54.2255640  89.7124195 104.7009468  53.1192112  90.4937744
  21.1288667  89.5668507   3.4750620  21.7569208  88.9296722   3.1348002
  20.3803110  89.5057201   2.8816321  35.3387094  89.0839100  28.8556099
  34.5598078  89.6324921  28.9483523  35.5228043  89.0861797  27.9162836
  35.0966907  20.7068491   3.4783429  34.7816014  20.4688931   4.3503097
  34.3026972  20.9107685   2.9841530  57.3929548  51.8557978  22.3333859
  56.8375540  51.6587162  21.5791154  57.2243881  51.1416578  22.9480553
  92.5210094  78.2560968  82.4378109  92.4428272  78.0640364  81.5033436
  91.6197395  78.2483959  82.7601337  43.2820225  90.4855633  34.4596910
  43.6768770  90.1842976  35.2779579  44.0228844  90.7826328  33.9313865
  66.9457006  83.7196732  73.5347986  67.5368500  82.9683685  73.5829401
  67.2620058  84.3171215  74.2124701  20.0981379   4.7474402  18.6812794
  20.6621790   4.0357798  18.3785796  20.7012081   5.3850424  19.0633798
  69.3735409  81.2001133  75.2333736  68.4591484  81.3203812  75.4895973
  69.6687794  80.4473019  75.7455635 109.6606159  43.4724522  75.6143904
 109.6974373  43.7616110  76.5261269 110.1733589  44.1237354  75.1356745
  55.0379896  74.5825863  87.5499058  55.6887960  73.8987732  87.3915291
  54.7287941  74.4172907  88.4405804  68.3628416   9.9068707   3.0986261
  69.0064430   9.3845290   2.6199135  68.8804436  10.5833924   3.5352477
  92.7486610   3.7826177  10.0759780  92.1287537   3.5343152  10.7617605
  93.5731030   3.9287865  10.5398357 102.1513271 104.6415806   9.9736673
 102.5832272 104.0236568  10.5634630 102.7147293 105.4153538   9.9830627
  44.0252924  19.4635689   3.2010689  44.6642733  20.1522040   3.0174524
  44.0981388  18.8648605   2.4577838  58.2950640  40.3082943  34.0842175
  57.6674795  40.3908920  33.3662033  58.6121798  39.4072509  34.0226889
  32.7382016  76.8026733  14.8091388  32.1519876  77.4864197  15.1332903
  33.0730557  77.1469927  13.9811587  55.1177359  32.1176553  61.3103485
  55.1247692  32.9325318  60.8081913  55.6940794  31.5301442  60.8215857
  28.6084843  99.8639870   9.1137832  28.4590721  98.9192581   9.1510290
  28.6818266 100.1311874  10.0300026  70.7249784  61.6104698  29.8938823
  70.4652357  61.7406940  28.9818478  70.2088594  60.8587027  30.1849031
  64.0114880  45.0121641  32.9601121  63.1244230  45.3537893  32.8476906
  63.8897276  44.0750360  33.1124234  34.8276496  95.7733917  10.6498444
  34.7439742  95.4454136   9.7544914  35.4870701  95.2076626  11.0515141
  38.4979463   3.7148982  29.9307847  37.8076172   3.4471118  29.3241811
  38.0464578   4.2424199  30.5896568   3.6251923  71.6245127  86.6445160
   3.6279857  72.4981308  86.2533569   3.9202255  71.7640448  87.5443649
  49.4554663   9.1338092  36.4114332  49.1746378   9.2115289  37.3232031
  49.1469669   9.9392509  35.9963131  47.9832602  93.7216759   2.3866285
  48.8268328  93.3952045   2.0735155  48.2095718  94.4247532   2.9954800
  92.3064995  43.3474636  83.7712765  92.4646854  43.3242035  82.8275204
  93.1747246  43.2492447  84.1621399  85.9495926  44.8601437  77.9205751
  85.7688427  43.9413214  77.7222538  86.8683052  44.9807549  77.6804447
  66.5026855  97.0653248  83.4248638  66.4872313  97.6453781  82.6636028
  65.6353140  96.6606045  83.4352493  82.3945808  28.3299494   4.3162110
  82.3072720  27.4814630   3.8818389  82.2083282  28.9706635   3.6298966
  90.1371574  10.9042501   0.4579868  90.5215645  10.4716396   1.2204222
  90.8888245  11.1593735  -0.0769336  19.0199089   1.6965078  27.8286767
  18.2161403   1.9815587  27.3940086  18.7322557   1.0260962  28.4483814
  87.0315838  51.9913864  69.0193367  86.8316555  52.1197605  68.0920935
  86.3375568  52.4616385  69.4813251  97.2942924  19.2969739  17.0326936
  97.2486782  19.7316027  17.8843081  98.1792259  19.4803905  16.7172801
  93.0809212  68.5345125  69.8854446  92.9390717  68.3838034  68.9508867
  92.4634171  67.9457951  70.3194189  26.5082765  71.1467218  82.3236561
  25.6536460  71.3711548  81.9555950  26.3914561  70.2664566  82.6810360
  31.8042541  16.1180258   6.6944194  32.1395993  15.6731665   7.4728000
  32.2709680  16.9535387   6.6763246   7.0540470  99.6155548   7.5439376
   7.0153123 100.5681992   7.6288158   7.8981978  99.4465065   7.1255332
  93.3725548  37.7098632  60.3265762  93.9445496  36.9791818  60.5614376
  93.9076710  38.4897804  60.4735756  79.7519922  57.1814680  77.9659605
  80.0292683  57.7915001  77.2824287  80.5147743  56.6217566  78.1112671
   0.3705580  69.4670963  89.7363281   0.8043272  69.4107103  88.8849258
  -0.3178423  70.1203823  89.6116161  86.5784073   8.1441271  16.9432044
  86.4384556   9.0885490  17.0118499  85.9299469   7.7622843  17.5347543
   7.1619278  45.7985592  88.3889866   7.9628837  45.7438231  88.9102364
   6.8975258  46.7163706  88.4518147  71.6849375  17.3854542   8.5436714
  72.2064924  16.7098033   8.9769250  71.6838503  18.1185758   9.1591078
  85.6481838  68.8335896  75.7075262  85.7648468  68.0518770  76.2474775
  85.3149128  68.5013771  74.8739815  38.2144141  13.9996612  36.4961219
  37.9050589  14.8273289  36.8642211  38.4470081  14.2116427  35.5921340
  61.6506290   0.2144778  26.9831324  60.8296108   0.3743845  26.5177417
  61.8368816   1.0398111  27.4307561  67.6397514  43.5504723   5.9588140
  67.5692987  44.2215347   5.2798820  66.7331982  43.3417940   6.1843026
  44.9055815  34.6049523  -0.3814913  45.7306719  34.5061255   0.0935804
  44.2652941  34.8276424   0.2942837  25.0828981 103.8568401  21.7889476
  25.4423952 104.5449829  22.3488140  24.9992061 103.0978298  22.3661160
  50.7984734  25.3710222  28.9175963  51.2615585  24.5538449  29.1019988
  50.1837111  25.4673266  29.6449375  79.7756672  41.9725895   7.6528078
  79.9689388  42.0408297   8.5878050  79.0372038  42.5662565   7.5169271
  57.4058867  30.4534650   6.6307539  57.5867605  29.5274734   6.4693332
  58.0390358  30.9198546   6.0850149  37.5066471  65.7001638   5.4095829
  37.8204036  65.8935833   6.2929732  38.2914281  65.7386684   4.8628953
 105.4132938  91.4342976  63.4368944 104.4890404  91.4239311  63.6856508
 105.8593273  91.8241501  64.1887569  82.8492260  33.5890555  28.0355477
  82.3960209  34.0548038  27.3327589  82.7495480  34.1549611  28.8010812
  46.4098215  57.7653217  20.9136224  46.3395643  58.1370544  20.0343561
  46.3845253  58.5237551  21.4970350  38.1504107 102.4997520   2.6853636
  38.3267307 102.6038647   1.7503220  37.2267342 102.2524357   2.7288359
  53.2319212   0.9240877  29.0630841  52.5352240   1.3163885  28.5368252
  52.9255009   1.0069106  29.9661231  61.3743114  19.7313952   5.9813857
  62.2216034  19.7102046   5.5365413  61.1857033  20.6631517   6.0931331
  44.1727161  44.1743374  21.0882831  44.6674347  44.9834681  20.9586906
  43.3511305  44.4575930  21.4895272  58.6845779   5.8078790   2.0435999
  58.7112904   4.9927926   1.5424487  59.3871021   5.7164109   2.6872805
  23.8475919  77.5767374  14.5193624  24.3607140  77.7874136  13.7392640
  24.3574977  77.9356718  15.2455831  84.0900230  82.9125404  65.2304649
  84.7921944  83.5622406  65.1977730  84.5441437  82.0710564  65.2742195
  17.2854078  52.4678755  21.6168785  17.2972870  51.5143204  21.5342975
  18.2020438  52.7079916  21.7523623  86.6493320  57.1102571  78.0878448
  86.2113094  57.0242023  78.9345789  86.3723278  57.9661369  77.7607727
   8.8486165  87.3744678   9.8781294   8.8465500  86.4579201  10.1540971
   8.0646372  87.4631882   9.3361533  12.0983565 102.9188156  11.3855660
  12.0788538 102.3633385  10.6062698  12.8511953 102.6035404  11.8856347
  99.8028183  32.4308467  82.6632404 100.1277447  32.4123812  81.7630672
  99.6045303  31.5164280  82.8651142  77.4812555  21.2647963   2.7256483
  77.6437330  21.4244914   3.6553422  76.6768694  21.7479801   2.5366315
  14.1655660  68.2363367  61.3445759  14.3437779  67.4141788  60.8879280
  14.5735073  68.1265450  62.2035074 106.3539314  62.9181767  67.8346825
 106.5837574  63.8383770  67.9637146 105.3983212  62.9004049  67.8867483
  14.0596354  83.1326866  86.7445755  13.8090003  84.0559006  86.7115879
  14.9876058  83.1446552  86.9790077  73.1879425  14.9291384   0.2870163
  73.4507656  15.3802371   1.0893035  72.8036213  15.6152821  -0.2586364
  83.0870056  63.2401180  83.4853172  82.7468014  62.6646566  82.8002357
  83.8178253  62.7531433  83.8661003  21.0773969  27.0392704  90.3249073
  21.6772890  26.8569946  91.0481834  20.3107858  27.4317217  90.7426643
  41.5003681  92.4123478  24.6925044  41.9200706  93.2723522  24.6708369
  40.6574488  92.5462151  24.2591429  72.0428133  53.9492655  85.0308990
  72.8392267  53.7179279  84.5529461  71.7812395  53.1384182  85.4671764
   3.1565461  70.9710236  91.0816328   2.3241553  70.7270892  91.4864264
   3.7917552  70.3583451  91.4522591  25.5199265  29.7231245  70.9920359
  26.0074568  28.9655590  71.3155174  24.7417569  29.3486667  70.5791616
  69.2158651  23.4358931   1.4767815  69.2835760  23.3066344   2.4227938
  69.3146753  24.3803406   1.3564096  72.4047947  25.9336782  18.6726475
  72.6188946  26.2198520  17.7846730  72.3032618  26.7462778  19.1682315
  92.2305489  35.7995939  80.1996803  91.4873600  36.1216640  80.7097530
  92.5990105  35.0946712  80.7321739  83.2451248  88.0757618  54.9699831
  82.6021957  87.7951717  55.6212521  83.6079884  88.8869667  55.3256655
 104.8381042  79.6715641  65.7653856 105.3500938  78.8898802  65.5578661
 104.3871117  79.4529629  66.5808964  91.7283249  74.2632389  88.4085941
  91.7507839  73.3131456  88.2943630  91.6221142  74.3886614  89.3515778
  13.2333958  73.9523077  36.0986590  12.7337873  74.5164490  35.5084300
  12.9136348  74.1769457  36.9724560   6.6825259 101.8539429  17.4035251
   6.2832695 101.1881733  16.8435442   7.1942544 102.3962593  16.8033111
  64.7906780   6.4126951  14.3972909  64.4294262   5.9583956  15.1584351
  65.6374216   6.7444319  14.6959686  73.1965780  53.4010220  82.3665619
  73.5532284  52.9379797  81.6085243  72.6640034  52.7463961  82.8182983
  92.0988846  44.7573423  88.6229897  92.0310497  45.0736332  87.7221107
  92.6696873  43.9911079  88.5654736  32.5735903  20.5576420   2.0874663
  32.7638960  20.1489186   1.2430972  31.6771317  20.8816266   2.0001087
  31.3812757  88.1331348  13.8263977  30.5130243  88.1643867  13.4246588
  31.9827056  88.3503819  13.1141353  87.7406502  75.4252100  84.4816685
  87.7469158  74.9777126  83.6355400  88.5877419  75.8688879  84.5242500
  87.8855801  91.8676281  20.2122808  87.6457882  90.9631443  20.0106835
  87.0687485  92.3581219  20.1204562  35.6591511  84.1983032  23.0347347
  36.6024756  84.0367508  23.0511069  35.2659893  83.3338261  23.1544638
  80.0255394  28.3747053  27.1637583  79.7116852  27.8555107  26.4233756
  80.2946663  29.2072177  26.7755246  62.4519022   0.3138036  59.3387318
  62.6866992   0.7838601  60.1388264  61.6100104   0.6881780  59.0793085
  72.9209805   5.2124262  31.1097288  72.3634243   5.5226159  31.8232727
  73.2591867   6.0113925  30.7053733  34.5968533  13.9118004  32.8956914
  34.2829919  14.6785927  33.3750176  34.5036793  13.1877005  33.5147452
 105.2450562  61.9550419  84.5226002 105.4803562  61.1597252  84.0447521
 104.9757862  61.6442919  85.3869820  68.9618587  10.4691863   7.1771294
  69.4649553  10.3551769   7.9834348  69.2334223   9.7395939   6.6201907
  90.8979321  66.6769934  83.7246418  91.7804527  67.0174360  83.5781002
  90.9950733  66.0662365  84.4552326  45.8774233  29.8462129  26.6226172
  46.6025448  29.5284581  26.0845995  45.9399796  30.7999063  26.5697908
 106.4159298  78.8624620  59.4380188 107.1220303  79.2074442  58.8915300
 105.6530094  78.8441277  58.8602257   7.4007887  38.2214928  62.6265049
   6.9692349  38.8217998  63.2344723   6.8949836  38.2955599  61.8172407
  28.1436229  22.7547860  14.8831129  28.6286354  23.2523966  15.5414295
  28.5078430  21.8710804  14.9344981  47.3920774  12.2519660  14.2835009
  48.2296705  12.7047229  14.1851151  47.0653963  12.1555650  13.3889520
 101.9426441  82.6791286  84.2011738 102.0965004  81.7868900  83.8905811
 101.5841961  82.5677490  85.0817108  75.3031027  36.8711679   0.3590187
  75.2097022  35.9186952   0.3764519  75.2978599  37.0953576  -0.5715385
  29.2338657   3.7044561  71.6950750  30.0357103   3.5601953  72.1975374
  28.5592556   3.2274768  72.1784258   7.6663065  76.3370895  88.1144238
   8.5143912  76.0577536  88.4593296   7.6846004  76.0764027  87.1935940
   1.3611966  85.0487804  90.2182865   1.7991580  85.6284809  89.5950985
   2.0651618  84.5106125  90.5802822  96.9541836  11.4478421  68.3709192
  97.6268005  11.6964912  67.7368879  96.1281013  11.6828060  67.9482937
  12.2273993  91.7017174  80.0609398  12.1776974  92.0952034  79.1897774
  11.4658487  92.0497704  80.5247593  97.5468400 103.3837922  91.8450900
  97.1875670 103.0166800  91.0373879  97.9812339 102.6450570  92.2714770
 105.8278751  58.7515497  52.5995779 106.7640209  58.9402008  52.5341272
 105.4224396  59.3214560  51.9460821  27.5780773   3.9196050  87.5817013
  27.8859901   3.0134362  87.5984097  26.7914820   3.8952771  87.0368099
   1.0296950  96.8130684  31.1346745   1.1937450  96.4022923  30.2858019
   0.6060119  97.6442814  30.9206438  21.9706106  71.9281673  86.3233280
  21.4853430  71.6157198  85.5597019  22.7976012  72.2513866  85.9657669
  40.1508427  12.3759234  33.4262371  39.8562789  13.2317913  33.7376094
  40.0444841  12.4172044  32.4758601  91.3677120  27.2934246   2.4371631
  90.8063889  26.5430522   2.2419870  92.2409248  27.0184398   2.1576720
  79.8395729 102.3206520  67.1041632  80.0685024 101.4134693  67.3062706
  78.8885450 102.3093224  66.9962025  66.1589956  31.5951514   8.7740523
  66.1221695  32.4725533   8.3932114  66.0262680  31.7352319   9.7115982
   8.6168802  14.6225202  28.2640290   8.0382764  15.3040004  28.6061335
   8.2039350  14.3462050  27.4458861  56.7102337  95.3905869  20.4354310
  57.2803354  96.1553955  20.3561306  56.8639421  94.8929787  19.6323180
 100.9603214  68.1106377  84.8061657 101.3307095  67.2510815  84.6056461
 101.6454887  68.7307835  84.5567703  24.7540689  52.8057241  16.7237520
  23.9440012  52.3554325  16.9630456  24.4787979  53.4799671  16.1025774
  21.5808868  64.7414589  61.2386560  20.9808159  64.5355940  60.5218840
  22.0940566  63.9423609  61.3583994  72.8852749   6.3658047  25.4639935
  72.0902538   6.0437733  25.8888078  73.2737780   6.9625056  26.1037183
   6.7597026  81.8553257  56.1389828   6.1958176  81.9066715  55.3672123
   7.4618411  81.2571430  55.8832264  85.0408363  88.5625839  65.6538057
  85.0296879  89.2990303  66.2651634  85.9690475  88.4174633  65.4705429
 106.6993809  85.2354240  80.0322342 106.8552399  85.5878258  80.9084415
 105.7538319  85.3153515  79.9066305  66.1513186  34.1990042   8.1159312
  65.5936670  34.4678998   7.3858953  66.0221767  34.8775887   8.7785614
  57.0978975  27.7876925  18.0795467  57.2623205  27.3614764  17.2383928
  57.6446342  27.3081779  18.7019432  62.1747780 104.2730618   8.0145204
  61.9383526 103.9606857   7.1411598  61.3960075 104.7370338   8.3218920
  66.1501837  83.6108589  62.7146006  65.4745197  82.9548931  62.5430822
  66.5333033  83.3469963  63.5511589 100.7476521  72.6525831  60.3282499
 100.7575512  71.7523575  60.6534052 100.8227921  73.1923151  61.1151886
  31.6939831  41.3719797  27.9592228  31.3858461  40.5767822  27.5245404
  32.2961879  41.0581636  28.6338353  10.1887321  62.9239988  90.0936890
   9.5501399  63.4174490  90.6084061  10.7888031  63.5886812  89.7555447
   3.2893407  67.7043962  87.1953011   3.4080973  68.4058809  86.5549469
   3.7383258  68.0181408  87.9802895  50.3712749  20.1585364   1.5907134
  51.1945581  20.5148196   1.9246286  50.4135609  19.2246389   1.7963371
  65.9915638   9.2163610   1.1685808  66.7614317   9.6878880   1.4866923
  65.4224586   9.1424990   1.9346732  24.6521187 103.2417107  73.7583399
  25.3695798 103.7299347  74.1622162  24.3124986 103.8294697  73.0834866
 104.9359417  93.5618877  24.2031860 104.8057270  93.2310963  23.3144450
 104.6590996  92.8417397  24.7697425  90.6854916  85.8105659  67.5635147
  90.8071423  86.5866756  67.0166254  91.5736675  85.5005360  67.7403164
  12.1201205  72.2194386  91.0486794  12.1352506  72.7917099  91.8158150
  11.2143755  71.9144869  90.9951782  35.3853035   0.1101425  59.8607683
  34.8922825  -0.3726894  60.5241203  34.8521662   0.8849674  59.6828842
 109.4069481  46.8818903  56.5492153 109.7277164  46.2777138  55.8796501
 110.1741695  47.4006510  56.7910671  14.5240378  98.9966393   0.6683693
  15.2140176  98.4119034   0.9818075  14.5786536  98.9417458  -0.2856938
 100.1176071  96.2974548  79.3008566 100.1768970  95.6987000  78.5564041
  99.1801739  96.3597965  79.4840193  60.3838539   7.7534997   6.0857016
  60.2186251   8.6053598   5.6816387  59.6412182   7.2127634   5.8167684
   5.8612990  99.5848942  15.8529437   5.4849052  99.9953747  15.0744402
   6.4836049  98.9441967  15.5087411  87.9728794  80.4136086  88.9434624
  87.9577351  80.5017757  89.8964787  87.0598698  80.2561092  88.7029648
  99.0522099 103.1698704  70.2076340  99.4347572 102.8124332  69.4063044
  98.2429886 102.6732063  70.3289557  20.3000975  16.6327667  79.3424273
  21.0418367  16.0277426  79.3417454  19.6438169  16.2064970  79.8936272
  97.7925682  64.0681267  77.3331785  98.0178356  64.8982906  76.9132805
  98.6130428  63.5752583  77.3449039  91.6906261  97.0897388  51.1051893
  92.1822262  97.7409458  50.6046867  91.6527081  97.4479198  51.9920349
   2.6465085  34.8036718   4.8787692   3.4554315  34.3234515   4.7019491
   2.8261232  35.2866125   5.6854528  94.9512291  82.5208282  82.5232506
  94.1762543  82.5999165  83.0794811  95.4924965  83.2745647  82.7580547
 110.1124954  65.9284163  79.9348354 110.0462437  65.1169491  80.4381847
 110.0451088  66.6229057  80.5901051  18.7733901 101.4163399  76.9534492
  19.7303736 101.3960838  76.9551992  18.5143137 100.5084705  77.1112013
  83.1050396  13.0329204   3.1846529  84.0185833  13.2305694   2.9782367
  83.0973053  12.0919728   3.3601233 107.1526909  71.2565756  63.7767506
 106.2760925  71.3938999  64.1358471 107.2908401  72.0008564  63.1909227
  46.5124655   6.9316608  90.6260395  46.9475746   6.1140448  90.8677292
  45.9252739   6.6880423  89.9104404  76.9535923  60.2607775  60.8171272
  76.3314342  59.5506954  60.6592369  77.6629591  59.8518705  61.3129330
  72.8870440  15.2897060  19.8572743  72.7006531  15.0185537  18.9584041
  73.7667704  15.6647706  19.8167670  22.3825049  53.4150362  68.3342600
  22.1401644  53.3042574  67.4148989  21.5949893  53.1710815  68.8206100
  32.6794338 103.0454350   8.5966456  32.1062016 102.3167801   8.3585304
  32.4499631 103.7417126   7.9812008  79.2263842  18.8437438  11.9244945
  79.9608374  18.2422221  11.8020797  78.4484529  18.2932794  11.8348289
  74.4089127  41.1432886   5.0608778  74.5122957  40.2782440   5.4574227
  74.5485163  40.9961700   4.1254100  18.6505234  95.5368233  84.5731735
  18.6242473  94.7902584  83.9746857  17.7324200  95.7787609  84.6947479
  25.6384254  75.7503605  85.8417702  25.3649211  74.8342276  85.7956314
  26.1723280  75.8806801  85.0580597  19.5175231  84.0969658  88.3476448
  20.4496312  83.8808250  88.3213615  19.1359305  83.4411144  88.9311409
  64.9271917  48.0417156  12.7057695  64.7043610  48.8197851  12.1947110
  64.7656631  48.2973242  13.6139572  75.2535200  84.3309116  68.7370968
  74.9310064  84.6759987  67.9045534  75.7888937  83.5761547  68.4922314
  24.0371156   5.7791591  71.4922476  24.2446780   4.8939431  71.1930132
  23.9188099   5.6907129  72.4379826  23.9183640  99.3189526  47.0286131
  24.2286873  99.4267559  47.9276752  22.9942679  99.0868855  47.1204042
 109.0103436  61.9326973  31.0549140 109.4330692  62.7788830  30.9082508
 109.4005775  61.3533831  30.4004312  99.0122414  59.2680550  21.5236616
  99.7736168  58.6987257  21.6350365  98.3462715  58.7033796  21.1314201
  96.0900784  19.8161161  84.8203850  95.8380508  19.0417755  85.3234863
  97.0405006  19.7451556  84.7315788  18.7165296 104.6953869  88.0049419
  18.0971766 104.8744583  87.2974396  19.5457578 105.0597000  87.6952839
 111.3966465  32.3753977   3.6551976 112.1262264  32.4490857   4.2704371
 111.7153454  32.7923751   2.8547001  34.5972919  19.5846844  82.7205181
  35.4392695  19.1869557  82.9421425  34.7162294  20.5161977  82.9059029
  59.4494772  90.6896114  70.7202101  59.9397373  91.5037918  70.6062460
  59.7008276  90.3783989  71.5898085  93.3760929  60.8883953   7.9618901
  92.8977203  60.2108717   8.4397489  94.2161560  60.9539413   8.4160155
  98.7688732  48.5604715  14.6566153  99.4219685  49.0207005  14.1294694
  99.2819977  47.9926348  15.2314985  58.5346985   3.7746263  68.3886051
  58.1261063   3.8200033  67.5241852  57.9500389   3.2160562  68.9008570
  97.8077984  48.6861658  10.1265967  97.8919411  48.7781096   9.1775453
  96.8646526  48.7152672  10.2873659  52.2280407  88.7861633  61.9090986
  51.7628622  88.1364250  62.4360561  52.9366684  89.0912056  62.4756956
   3.2828984  77.3302794   0.5509990   2.4914378  76.8189287   0.7193378
   3.9250076  76.9898510   1.1739229  92.6677132  27.9287553  12.9534006
  92.6255894  28.7611818  13.4240639  91.7730236  27.5900078  12.9853475
   2.8548062  14.6853101   3.9642939   2.3264822  15.2541769   4.5242006
   2.5892973  13.7979603   4.2058486  55.1738548  15.6870461  91.6736984
  54.7200775  16.3164389  91.1131763  56.0735703  16.0107756  91.7178440
  39.4423461  14.1246367  77.7441216  38.5635328  14.3708944  78.0327034
  39.5723057  13.2442749  78.0966949  63.0646658  19.7738671  77.2303343
  62.8976870  20.6278896  76.8315935  63.8800335  19.4763863  76.8267012
  28.0359507  95.0267220  85.5935192  28.2234764  94.1936779  86.0260773
  27.2775531  94.8433018  85.0390625   1.6634034 102.8546429  86.5415478
   2.5397190 103.2389069  86.5668774   1.2524715 103.2459545  85.7706738
  50.0328350  81.1450005  83.7275410  50.8826828  81.4489174  84.0463257
  49.4595242  81.1912537  84.4926548  53.3021069  39.2050171  84.0195656
  54.1054058  39.1042709  83.5088921  52.6383257  39.4519901  83.3756447
 111.2122440  45.0192308  -0.0220422 111.3006783  45.6790304   0.6657586
 111.0698223  44.1987848   0.4499941 101.7358875  15.3363371  28.5575938
 101.7023087  15.9544218  27.8274727 101.7374706  14.4742143  28.1416917
  65.5276918  84.0507317  81.5042305  64.9944830  84.6846104  81.0245323
  65.2574968  83.2000637  81.1584091  30.5230165  97.6241302  77.0872974
  29.6394682  97.2965431  76.9191933  31.0829544  96.8512344  77.0142651
  87.1034431  14.1463017  85.7888317  87.8678131  13.8700354  85.2832031
  86.5508080  14.6051157  85.1561260  25.9295034 102.0690823  69.1395617
  25.3310728 101.3305950  69.2524290  26.7756057 101.6646099  68.9478922
  76.8907547  49.9015331  34.1016936  76.9930983  49.8615265  35.0525665
  76.2755108  49.1973448  33.8971806  29.2146564  18.8330448  73.9171696
  29.7902703  19.3492246  73.3528519  29.7326255  18.6739385  74.7062349
  73.8163948  48.5826921  83.5344696  74.2851257  48.1496429  82.8210354
  74.0887308  49.4986439  83.4787655   2.0661019  33.6009240  23.8807607
   2.5244361  32.9812908  24.4484019   2.7172408  34.2753291  23.6873007
  75.7636738  57.8887701   8.9733464  74.8726368  57.9493713   9.3177563
  75.6907272  58.1865644   8.0665767  24.5044184  80.9617329  37.0190859
  24.4297910  80.5416679  36.1622286  23.7269855  81.5165520  37.0823574
  22.3448873  97.4122620  44.1687346  22.1652770  97.1030521  45.0566292
  21.5606022  97.1807003  43.6712313  54.8364496  20.7188296  87.7751446
  55.4493141  20.2686071  87.1938229  55.3945971  21.2188506  88.3706951
  80.6917667  39.1658044  22.7483416  80.4207516  38.8673854  23.6165166
  80.0795078  38.7414312  22.1472740  22.8823996 104.9181747  85.1837254
  22.4423838 105.6234455  85.6582928  23.0817294 104.2656898  85.8551121
  81.0880661  47.8350401  30.0123858  80.3017616  47.2898960  29.9847221
  80.9014511  48.5553169  29.4102144  20.1570988  73.9916754  87.2233391
  19.4453084  73.3651638  87.0926857  20.9536552  73.4634209  87.1715641
  73.4772301  45.0563240  24.0807104  73.7085342  45.6366873  24.8059058
  73.6573458  45.5718422  23.2945609   5.7267070  67.7865696   9.0066087
   5.1150912  68.4758186   8.7475830   6.5692163  68.0673265   8.6494160
  71.6742754  20.5187893  77.1541977  71.5088272  19.9405169  77.8988171
  71.8145657  21.3804817  77.5466681  88.7162209   8.0613339  82.3408413
  88.7002945   8.5844231  83.1423187  87.8176785   7.7464175  82.2424698
  15.5110058 105.0673087  91.9431454  15.9686455 105.6457598  91.3330716
  15.9512410 104.2226584  91.8483133  65.7102346  16.8941224  64.9590302
  66.3838768  17.1357131  64.3233633  64.9260426  17.3574448  64.6647453
  92.5748539  68.6228371  73.0063248  92.3191357  68.7569571  73.9189339
  93.4753609  68.9440632  72.9602337  23.4182096  99.8943901  87.6074886
  22.6451302  99.9292660  87.0441341  23.8354754 100.7484436  87.4947071
  84.0833473  22.3948979   0.6595686  84.2839718  22.5380063  -0.2653655
  83.1499100  22.5927567   0.7355828  28.0456853  82.0875835  46.4799786
  27.2764707  81.9193935  47.0242739  28.4481096  82.8647614  46.8676424
  56.8567991   2.5802043  87.9687214  57.3099184   2.2812212  88.7570858
  57.1659088   3.4769782  87.8403473  38.7666297  95.2239609  45.7435942
  39.0269256  95.0029945  46.6378260  38.0896163  95.8923054  45.8494329
  85.4549980  62.3356104  13.3842695  86.3761616  62.5818729  13.3003438
  85.2656937  61.8410349  12.5869060  79.4228172  50.4841709  81.7286110
  78.8251400  49.9467039  81.2088585  80.0770092  49.8667812  82.0558643
   3.7143323  90.2972221  76.5028238   3.7786227  90.3825569  77.4540424
   2.8201276  89.9919987  76.3496256   6.7363232  47.8255129   0.9788308
   6.4081562  48.3964586   0.2841672   6.1545348  47.0656633   0.9591834
  75.7384634   8.9146900  72.6394033  76.4011145   9.0079707  73.3238220
  75.2222300   9.7188550  72.6946497  64.5095015  18.5852194  54.9504852
  64.5366287  18.0822563  55.7644415  65.3587198  19.0252316  54.9124146
  98.6304665  86.4144611   4.1583097  99.0952969  85.5788898   4.1137183
  97.7161598  86.1723518   4.3055028  36.5612721  18.1021464  83.5752392
  37.3208165  17.5296271  83.4677792  36.3722205  18.0757189  84.5132160
  71.2344551  20.7437658  69.7948647  71.9735813  20.5543041  70.3728199
  70.6450605  19.9980009  69.9074697  55.6618404  17.2185290  66.4192200
  56.1972141  16.6679657  66.9906092  54.8124695  17.2645640  66.8581772
   4.1248611  65.3727722  15.9415638   4.9042833  65.7047319  16.3871384
   3.9511973  66.0143948  15.2528012  41.1547995  63.7750959  47.1289444
  42.1106863  63.7718534  47.0789242  40.8766651  64.2796135  46.3645267
  88.3511734   4.4491613  75.2270174  88.2150555   3.5823068  75.6094646
  87.9489326   4.3943509  74.3601656   2.9752168 104.4785976  37.2353244
   3.0884263 105.1971245  37.8575253   2.0767292 104.1797447  37.3754573
  21.2478900  63.5432053   3.4803820  21.6396403  63.7211847   4.3354195
  21.6132450  62.6973772   3.2209188 109.0543461  59.0945435  29.9143052
 108.2693672  59.6143484  29.7415709 109.5997047  59.2189455  29.1375589
  36.1572766  10.7224000  85.2240658  36.1243296  11.5211105  85.7505703
  36.8945932  10.8580828  84.6289253  54.8667240   5.9424210  66.4165401
  54.3857574   5.6838828  67.2027063  54.5849848   5.3186154  65.7474184
  83.5097313  52.9363775  10.4209137  84.3052483  52.9074383  10.9524536
  83.8221741  53.0986500   9.5308143  27.7259469  93.9703846  70.5279732
  28.2674789  94.1307831  69.7551584  28.2806635  94.2234612  71.2658596
  58.2164812   9.3044454  87.5845242  58.6441803   9.7002405  88.3439064
  57.3500490   9.0509480  87.9027462  12.3485899  21.3117886   0.3438760
  11.9672954  20.4528642   0.5257993  11.8109155  21.6675329  -0.3636432
  31.4864707  90.9512901  62.8012609  32.2128963  91.0089016  62.1806002
  30.8330774  91.5634155  62.4627256  82.8549099  25.6715989  38.8803840
  82.9232025  26.1095548  38.0319953  81.9436169  25.3826404  38.9280891
  43.2931137  30.4966831  66.9625235  43.7071705  30.5645514  67.8228617
  43.0545187  29.5730495  66.8837357  72.9829073   7.7963746  86.8651199
  73.6454344   8.3494401  86.4511013  73.4842205   7.1052480  87.2978497
  63.6657858  19.8278069  73.6622429  64.4108868  20.3914595  73.8704491
  64.0610313  19.0049267  73.3743525  67.7212572  17.0306838  53.6167049
  67.5540447  17.6835477  52.9369688  68.6651516  17.0790339  53.7682295
  66.2083578  33.2894135  65.2993441  66.0033321  32.5296307  64.7544336
  67.1566057  33.2467508  65.4227829  79.0892029  12.3737907  64.7967482
  79.9362230  12.8037822  64.6788931  79.2782736  11.6221249  65.3584290
  88.7792873  65.0192404  21.5023923  88.6176872  64.1438532  21.8542671
  89.1675663  64.8634005  20.6414723  64.1223860   7.0918769  56.7941093
  64.9637365   7.4949235  56.5798235  64.1134214   7.0501739  57.7503586
  30.0718331 104.1896152  61.6286707  30.8273029 103.6809158  61.9231606
  30.2420330 104.3563747  60.7016039  50.9877491  13.9070570  85.8622456
  51.5924644  13.5041142  85.2392006  50.3299141  14.3355381  85.3146267
  34.5977426 105.4200649  57.0839882  35.3809953 105.1041603  57.5344849
  34.0392733 105.7588959  57.7836561 102.2864628  53.2364273   1.8354861
 102.7820683  53.8059425   1.2470480 101.3984585  53.2374430   1.4781605
  86.3885212  12.5765634  80.1046753  86.1275291  12.7557528  81.0080051
  86.4610577  11.6231179  80.0609684  63.8802719  40.0575209  87.0750713
  63.0068779  40.2099466  87.4358845  64.4391632  40.6912327  87.5248241
  60.5394554  22.1186852  69.9712229  60.7327080  21.2453651  69.6303463
  60.6546974  22.0371723  70.9179544 102.8103161  73.0134344  36.8713975
 102.9621506  72.6414776  37.7402043 102.9039764  73.9579201  36.9955039
 105.8413696  27.2656178  58.7193489 105.9557152  26.6960716  59.4801188
 106.3829994  28.0314827  58.9099455  27.9212904  85.5073833  71.6556644
  28.5574889  86.1959648  71.4624405  28.2145357  85.1371193  72.4882174
   1.4784446  85.4378033   5.1851362   2.3834676  85.3914833   5.4933894
   1.2824415  84.5507431   4.8835647  57.5010872  14.7437322  45.1326990
  56.5757275  14.7823262  44.8909140  57.9556036  15.1776206  44.4106293
  64.5609853  43.1164853   0.3115448  64.9617192  43.8585965  -0.1411453
  64.9599168  43.1228940   1.1816296  90.2575016  22.5317240  76.8557549
  89.3915367  22.1244478  76.8773222  90.7759285  21.9622254  76.2873077
  84.0441227   7.1206772  62.5732136  83.2014465   7.4085557  62.9242992
  84.5686722   7.9198337  62.5239515  59.4462292  36.7085792  91.2837440
  60.3463166  36.9344856  91.5183344  59.3902676  35.7643463  91.4304534
 102.8435707  89.4366455   4.8146045 103.6673546  88.9491940   4.8136029
 102.8197193  89.8649025   5.6703258  68.6565065   6.8570274  83.0237865
  69.2956781   7.5630593  82.9278278  67.8596687   7.2944480  83.3236980
  57.7191734  18.5568082  72.6637173  57.8120327  19.5090103  72.6333618
  57.9573488  18.3213985  73.5604286 101.7808437  42.4888611   5.7432503
 102.0540428  41.5993690   5.9677398 100.8419418  42.5050640   5.9288174
  30.1871252  99.8208427  48.3961439  30.1101780 100.0297642  49.3270874
  30.7112384 100.5347347  48.0329800  53.9789391  32.2641945  76.1089087
  53.3307648  32.9420257  75.9174681  54.6215916  32.6988459  76.6695404
  84.9886990  33.9072895  58.8414240  85.6582928  34.3535233  59.3598270
  84.2832184  33.7294888  59.4634581   8.2431126  88.5964203   0.5640745
   7.3670280  88.5566902   0.1805014   8.7859881  88.0710697  -0.0237394
   5.0793302  87.6506329  78.8963270   4.2455262  87.6898479  78.4278536
   5.1962817  86.7226601  79.0998602  81.5265942  28.7804985  83.1772137
  81.7150497  29.5440555  83.7228298  82.3854733  28.4008694  82.9916382
  55.4467869   6.4065009  83.0446243  56.3752556   6.2332815  82.8891659
  55.0039482   6.0457700  82.2765064 107.7144432  18.8039994  62.2811079
 108.5821342  18.7949109  62.6851749 107.5817299  19.7150552  62.0192051
  31.1573100  23.7918520  57.5975704  30.9796548  22.8847980  57.8464174
  31.6343021  23.7242579  56.7704391  73.4159040  66.7092133  17.9093409
  73.2321978  65.7709646  17.8626823  73.8089800  66.9187307  17.0620954
  70.4168224  27.1944785  31.2705302  71.3243961  27.3256516  30.9960580
  69.9661207  27.9935360  30.9973812  93.4672356  16.4737523  57.1506357
  93.3211040  15.5784619  57.4561405  92.6555061  16.9346392  57.3625612
  19.4230235  65.2046871   6.0089552  19.0185630  64.6589804   5.3345323
  19.4323742  64.6520472   6.7904502   7.9510581  49.5161676  13.0337346
   8.0915278  49.4195604  12.0918393   7.1002311  49.1072464  13.1921923
  22.7008939 102.4766350  90.2005863  23.3472514 102.6229668  90.8912659
  22.2431350 101.6789913  90.4660225  83.9036751  63.6645985  19.2741776
  84.1917324  62.8932047  19.7622359  84.3453407  64.3978071  19.7026300
  53.0469418  10.0889218  63.3510303  53.1913567   9.5517427  64.1300154
  52.2214842  10.5422425  63.5223627  41.5449095 105.6076241  47.9689121
  40.7534027 105.0693512  47.9651785  42.2613573 104.9807262  47.8692198
  82.6276302  25.9039068  60.7225227  83.2114220  26.6528511  60.8429718
  81.7814445  26.2040043  61.0544014  96.7039394  24.5031881  62.6980591
  95.8265495  24.5811653  62.3234367  97.2665882  24.9862623  62.0928288
  31.5761495  96.8528271  82.8851795  32.0432615  97.2070122  83.6418819
  31.3610816  97.6206303  82.3555946  96.6964626  13.2649910  78.9106321
  96.0853291  13.9459765  79.1917181  96.8167782  12.7163708  79.6857262
 105.3454685  61.6290569  12.1742046 105.1721001  62.3955297  12.7207339
 106.0498142  61.1659193  12.6276755  67.6010084  29.3850231  73.9850998
  67.8010511  28.8795877  73.1972265  68.0434465  30.2231359  73.8507557
  69.6816587 100.3080368  57.4751759  69.2850494 101.1635590  57.6395464
  68.9981174  99.8091221  57.0278645  70.3731823   6.6450858  75.8126974
  70.2764511   5.9861696  75.1251650  70.0459719   6.2160772  76.6033411
  96.5419197  48.4751654  13.3147871  97.3453617  48.6497021  13.8049376
  96.4892197  49.1889858  12.6792479  18.1334186  96.9997311  52.3565483
  17.8814387  97.7179432  51.7760992  17.5128543  97.0503712  53.0835724
  48.2676935  14.3398774  35.2867818  47.6590252  14.8948014  34.7991252
  48.3100557  14.7374678  36.1564708 101.8392277  12.3790908  79.5116901
 102.4071312  12.8832912  80.0943565 100.9615326  12.4909472  79.8768902
  78.3454180  37.0596910  89.0960121  78.3038950  37.9165936  88.6714745
  79.2184162  37.0283127  89.4873142  40.3682470  32.8161597  52.0246601
  39.9868894  32.0258832  52.4070930  41.2165928  32.9068828  52.4586105
  40.7918501 105.1948738  78.8517189  40.9730387 104.6091080  78.1166744
  41.6335869 105.2863693  79.2981911   6.9330913  71.9996691   8.3898926
   7.5121564  72.2796297   7.6809931   7.5133580  71.5675735   9.0166432
  88.0539417  12.4226177  89.1885853  88.1713390  13.1526089  88.5806656
  87.1477318  12.1441865  89.0563679  65.3215122  31.3049936  39.5069480
  65.9743547  30.6080365  39.5723820  65.5358791  31.9020367  40.2237558
  78.5844040  98.2194233   1.8224873  79.3942499  98.5309982   1.4183891
  78.6762476  97.2667885   1.8393661  75.0232220   8.4597176  91.3003445
  74.2634726   8.8904339  90.9085560  74.9400902   7.5427490  91.0386372
  39.0181708   3.2099727  61.5023232  38.8630009   3.2573223  62.4456739
  39.5451689   3.9848199  61.3070869  10.6358612  77.0494080  81.8581009
  11.1917865  77.4245262  82.5410843  11.1280799  76.2940025  81.5366650
  65.3257751 106.1271095  75.1533127  64.9542809 106.0013199  74.2801571
  64.7756863 105.5934811  75.7267952   8.2971042  95.1833534  64.2757273
   8.4175479  95.7490349  65.0384426   7.8417701  95.7339191  63.6387157
  82.0605087  15.4087222  68.2430458  81.7011642  14.5768368  68.5513830
  81.7945194  16.0451829  68.9066696 106.2219810  93.0279255   7.4656498
 105.7556152  92.9973316   6.6303056 107.1463776  92.9607391   7.2264773
  69.9312925  31.2025809  70.0626469  69.7759962  32.0966864  69.7581959
  69.6138859  31.1985278  70.9656811  15.3389704  76.4592886  74.7232294
  15.2485335  77.0282841  73.9588356  16.2674534  76.2272310  74.7405672
 101.9287014  63.3767462   5.6000197 101.2708282  63.1505728   6.2575001
 102.6747417  62.8127193   5.8037847  90.8030987   3.0239737  73.0158329
  91.5011597   3.3273157  72.4353790  90.2195263   3.7776965  73.1028795
  42.1766043   1.6353841  67.4560070  41.3158321   1.8502210  67.8153801
  42.2009373   0.6785240  67.4483681  58.9054441   0.3447687  55.1052761
  58.0973101   0.6855033  55.4887438  59.5884371   0.9363840  55.4210949
  23.4286976 105.8659363  52.1367645  22.7052569 106.4348125  51.8736267
  23.7901735 105.5411720  51.3120842  45.6438112   9.0655160  81.1297703
  45.7858944   9.6453303  80.3815365  45.9528971   9.5675325  81.8838787
  88.1607151  10.7585585  83.4713459  87.2959328  10.5429173  83.1222057
  88.2101154  11.7128909  83.4162045  11.5352309 103.8238621  22.5278211
  10.6100678 104.0616131  22.5892854  11.8980467 104.0499973  23.3842444
   4.5254663  84.8924446  13.0901968   4.5728010  84.4230461  12.2573352
   3.5922801  85.0650024  13.2151783  87.8985500  10.5569518  86.3114452
  88.2416439  10.6121004  85.4195404  87.5846767   9.6562779  86.3920593
  97.9606342  65.6854868   7.2364855  97.5315380  65.5493736   6.3917494
  98.1279087  64.8022127   7.5652361   9.0214366  75.8119726   6.1929655
   9.4003510  76.5649652   5.7394665   8.6967254  76.1688089   7.0196837
  29.3629742  54.0854692  16.4112341  28.7053990  53.4656715  16.0955119
  29.0426850  54.9409151  16.1251330 105.7587337  52.8942823  35.5578780
 105.4985332  52.9146099  34.6369457 105.7148838  51.9689322  35.7987857
  42.7161312  58.7037039  87.1536827  43.4693861  58.6860228  87.7440453
  42.8566599  57.9630375  86.5638542   3.9953986  42.8380346  65.6780338
   3.7939361  43.7031174  66.0347891   4.3399578  43.0143023  64.8025656
  92.6408195   3.3215371  66.0065079  92.9010677   3.5087359  65.1045847
  93.4011745   3.5708013  66.5318298  76.2279892   9.2505765  81.2618065
  75.3156662   9.3120843  81.5448475  76.2110901   9.5107490  80.3408051
  31.3409758  20.2477455  79.4471645  30.4463649  20.5861664  79.4842148
  31.3168287  19.4488084  79.9738026  60.8643246   9.2720997  73.3570194
  60.5091429   8.4315038  73.6459398  60.6415367   9.3194234  72.4273109
  21.3639474  99.3784142  38.1962252  20.4833317  99.6354961  37.9230046
  21.2441278  99.0035439  39.0687799 102.9747295  48.4710121  30.0900269
 103.6001205  47.9694176  29.5670319 103.4414196  49.2760801  30.3143191
  43.7404060  17.7719021  37.7061582  44.6407366  18.0907559  37.6431632
  43.2229376  18.5528433  37.9026031  38.0709577 102.5024223  79.4682980
  37.2700930 101.9857311  79.5570278  38.2640433 102.4858856  78.5309219
   1.2399011  63.9779425  13.6857665   1.6522786  63.6349487  14.4785666
   1.7730226  63.6324072  12.9697919  28.8627052  93.2113266  79.3652630
  28.5564327  93.8760376  78.7483358  28.4742832  93.4646416  80.2026367
  39.2718577  21.5284228  90.3381252  38.9236307  20.7627678  89.8812485
  40.0787210  21.7408252  89.8689938  69.1870070  18.5535729  64.1577339
  69.1164732  19.1549349  64.8990965  69.5019579  19.0984225  63.4364986
  96.1519432  80.9068298  14.7219551  96.4810658  81.5735435  14.1191196
  96.9298458  80.4124737  14.9802220  38.4801936  43.0765152  53.3206749
  38.0687070  42.7857685  52.5068092  38.7499523  42.2673368  53.7550545
  44.4295168  19.9562144  79.3045807  43.8077974  19.4021380  78.8326740
  44.0002728  20.8104038  79.3529892  91.9939327  20.5436206  63.1160498
  91.5075016  20.0345135  62.4676466  92.0370960  21.4250088  62.7452087
  38.3724689 103.3189869  76.8750286  37.5574780 102.8995132  76.5992403
  38.1702542 104.2545700  76.8808556  87.9763317  50.6034374  25.2887797
  87.5197411  49.7816944  25.1085114  87.2775650  51.2279797  25.4834747
  45.9402466  99.6586895  65.9624386  46.2514687  99.7386932  65.0607872
  45.8048248 100.5615425  66.2500763  80.7026482  68.3541536  14.2306602
  81.2065125  68.6456680  13.4708118  80.5141926  69.1575861  14.7156501
  59.3283081  13.3452022  65.8927584  58.6372375  12.9715526  66.4396000
  59.2623043  12.8692639  65.0648928   8.3868563  80.6612301  35.4314613
   8.8578230  80.8169460  34.6128201   9.0640622  80.3834343  36.0482717
  46.5923452   4.2788681  82.4110889  47.3552895   4.6294817  82.8706741
  46.0202742   5.0357926  82.2844696 100.1686001  99.4945812  21.9581270
 100.5238724  99.8476791  21.1424446 100.7490253  98.7653923  22.1763444
  39.1511726   7.2973675  79.3190145  39.0115118   6.9462401  80.1984692
  39.9885702   7.7576435  79.3750811   2.4456964  43.3367395   8.2154107
   3.0937168  43.6566591   7.5877512   1.6850597  43.1106377   7.6801169
  71.6945457  45.4539394   5.3134817  72.0574188  44.8020744   5.9131706
  72.0508718  45.2164412   4.4574091  40.7030535  44.0995502  86.1881065
  40.0201559  44.7693968  86.1535645  40.3891563  43.4072828  85.6063271
  53.8817120  95.1618290  76.7978621  54.2886877  96.0103893  76.6230822
  54.2093039  94.9125290  77.6620150  95.0699615  33.4186101  64.4596195
  94.3525696  33.4701419  63.8280153  95.6708050  32.7730680  64.0874720
  95.8398151  82.6697445  11.4778972  94.9534512  82.7826977  11.8211758
  96.4096642  82.8184605  12.2324765  91.5273094  43.6046743   9.4223887
  92.2264099  42.9508686   9.4168818  91.0707474  43.4741354   8.5912788
   8.6499512  94.8141766   2.3622023   7.8374690  95.3144646   2.4384856
   8.6451203  94.4851303   1.4633501  99.0568066  39.1727042  20.0924754
  99.9519157  38.8374090  20.1431894  98.9467144  39.4238567  19.1753972
  82.0466805  25.1335335  67.3865318  81.4912987  25.6961417  67.9262114
  81.5800095  24.2985129  67.3519754  93.7676239  32.4147391  84.1406155
  93.3922291  32.9673338  83.4550953  93.0108452  32.0020771  84.5568180
 106.1113930  76.5555143   0.6045980 106.5257740  77.2664118   0.1155763
 105.1755714  76.7533255   0.5679805 102.0271717  24.3910076  91.8675587
 101.8998633  24.9324896  91.0885722 101.7097078  23.5249712  91.6117573
  67.9008627  12.3655665  80.4613113  68.0220270  11.5126824  80.0440121
  66.9673967  12.5514555  80.3597546  63.9719725  26.3824892  56.1976147
  64.1443968  26.7999053  55.3536558  64.5535707  25.6223798  56.2121439
  64.1776514  31.6961980  86.5413475  63.7030172  31.5921187  85.7166481
  65.0778198  31.4463067  86.3327980  17.0503509   2.1860403  80.6573391
  17.7183950   1.5200293  80.8197498  17.5112414   2.8762835  80.1804924
  91.2579250  49.0656662   0.9333686  91.5526772  48.9094257   1.8305552
  91.6777611  48.3756208   0.4197421  63.9321804  94.1117954  91.0884190
  63.4190226  93.3342648  91.3082981  64.1663790  93.9918232  90.1680946
  67.2419357   5.6530744  68.0774260  68.0881405   5.2068543  68.1099367
  67.2827101   6.1863410  67.2835779  31.6211367  95.2191162  75.9475136
  31.9383860  94.5931911  75.2965117  31.7250419  94.7671509  76.7848682
  77.2547817  10.1503813  74.5314503  77.0683384  11.0885012  74.4940090
  77.4618387   9.9838483  75.4510307  43.2192135  11.5150726  42.1344185
  43.1924152  11.6676927  43.0789948  43.9214849  12.0842588  41.8196630
  95.5228806  31.5101242  48.1316471  96.1854076  31.1250639  48.7052536
  94.8371601  30.8445024  48.0771494  98.5423183  68.9240408  26.5084338
  97.5896454  68.9894485  26.4422917  98.7775993  68.2268572  25.8962178
  21.1544013  49.0520334  20.6586242  21.7282891  48.2874918  20.7072282
  21.7078066  49.7443199  20.2970815  56.8787813  27.3416257  82.8565502
  56.2837982  26.9721603  82.2040749  56.3668489  27.3585463  83.6651707
  65.2044153  90.7835197   7.5529903  65.9957314  90.6094074   7.0433468
  65.4406643  90.5479050   8.4501535  36.1233211  23.5300589  57.6425886
  35.1973653  23.3707762  57.8255367  36.2587905  23.1735039  56.7646646
  51.2862778  37.4261403  78.0641556  51.2439489  38.1722307  77.4660015
  52.0540428  37.5991988  78.6089611  32.6599240  45.2490568  49.3300962
  33.1616712  44.8245621  50.0259972  31.8694925  45.5684185  49.7653627
   5.2543354  64.9321747   7.7202100   5.4571885  64.8754358   6.7864740
   5.1740509  65.8705330   7.8912783 101.8687248  97.6377296   2.9217505
 101.1399364  97.3297501   2.3830004 102.6438427  97.5006580   2.3771146
  69.8597622  11.2467623  76.8653536  69.6790171  10.6213892  76.1635876
  69.6749687  12.1020925  76.4774179  31.8362284  28.3847022  45.3551435
  31.0303330  28.8707161  45.1803398  32.1211576  28.0760908  44.4950247
  91.6077423   8.0644614  81.3120365  90.7999134   7.6345229  81.5927219
  92.2303581   7.3478258  81.1894608  53.7927294  43.2950687  70.3735399
  54.6383619  43.4218311  69.9433470  53.5799170  42.3750401  70.2170467
  40.9612417  78.4932041  10.4812658  40.9098864  77.9401302  11.2608194
  41.8819046  78.7500811  10.4300690  93.5993099  16.7651832  40.4690981
  93.6145592  17.7042985  40.6536627  94.5218182  16.5203130  40.3966618
  72.7111435  38.1900811  76.6329908  73.6001968  38.5229826  76.7554474
  72.5152159  38.3633471  75.7122183  24.2181110  26.7894578  65.5882502
  24.4548321  27.4800920  66.2072992  24.2759705  27.2076797  64.7291946
 108.3057117  64.6783113  10.4739857 108.0285931  65.4862165  10.9060979
 109.2468071  64.6278191  10.6413591  74.3386555   2.4268335  49.4201517
  73.7930727   2.8435895  50.0871468  73.9874697   2.7468732  48.5892010
  67.6272202  69.5315742   3.3894211  67.4181652  68.6077070   3.5272580
  67.8198290  69.5965910   2.4540575   1.0585447  13.1716835  82.8783226
   1.1271708  12.4266934  83.4754086   1.9216387  13.5843515  82.9100513
  20.3483605  64.8304462  22.8982067  21.1700845  65.1878452  22.5616550
  19.7325516  65.5618334  22.8525400  16.7306101  83.1569290  67.1679878
  16.4422309  84.0291786  66.8991709  16.8158126  82.6696968  66.3484859
  50.7304668  24.8837423  67.7702713  51.1377525  24.2891550  68.4002018
  51.4654255  25.2585101  67.2848749  91.3718700  10.2146137  79.5505333
  90.8370399   9.6727967  78.9703369  91.3824940   9.7382623  80.3807163
  45.8583689  27.8641486  82.4662304  45.3143644  27.4733877  83.1500340
  46.6261959  27.2947645  82.4164391  53.2806635  13.9104605  68.1029367
  53.2337952  14.8576069  67.9727459  53.7375784  13.8057280  68.9374971
 100.4844284  25.8770514  82.3420143  99.5924473  25.5298042  82.3377419
 100.6513214  26.1198020  81.4312744  76.4904928  12.0339310  77.0211077
  75.6253719  12.0946312  76.6159964  76.9935179  12.7420545  76.6189146
  96.8253708  75.7737017  50.3339672  97.1763992  76.5195179  50.8205509
  97.4724293  75.6092691  49.6480322  61.3574553  18.8048267  74.6758175
  62.1231699  19.3278301  74.4383669  60.7907486  19.4121289  75.1514816
  90.4086590   1.1954209  75.0656414  89.8944092   1.6014189  75.7634544
  90.4326057   1.8540996  74.3715191  68.5903692  32.1293092  75.7527399
  68.2966518  31.3818359  76.2735510  68.1129313  32.8758216  76.1146784
  84.3921947  25.0218439  86.0413742  84.5959091  24.1912174  86.4712429
  85.1767635  25.2271342  85.5329037  96.7760563  66.2405586   4.7606394
  96.1171246  66.7144823   4.2532575  97.6124954  66.5867758   4.4496110
  94.6261883  65.1056623   8.6521113  95.0402164  65.6904507   9.2868018
  94.3367195  65.6842422   7.9466391  18.9366198  88.1341648  77.7592182
  18.3546805  88.7171745  78.2467318  19.0112638  87.3548698  78.3100080
 100.8413410  82.6628590  76.3030863 101.3145065  81.9475746  75.8779860
 100.5371571  82.2903061  77.1306801  63.3002901  71.6041994   9.1225702
  62.4227095  71.7696953   9.4670898  63.7438202  72.4504614   9.1803890
   8.9960217  48.8987112  10.3688455   8.9176774  49.6192694   9.7436297
   8.3289641  48.2696056  10.0940871  89.7683811   6.8948370  48.1512308
  88.9373493   6.7900443  47.6879454  89.9490261   7.8339154  48.1096315
  70.5655241  88.7357044  87.3639393  71.3607311  88.3851814  86.9626617
  69.8681211  88.5138988  86.7469597  11.7672622  28.6246061  21.0882926
  12.3377216  27.8905606  21.3162947  12.2008872  29.3906879  21.4642215
  75.3279781  28.6523747  89.1368771  74.8715115  29.1867781  89.7867107
  75.8403254  29.2803288  88.6275673  68.5611153  23.6269522  67.1046495
  67.9199553  22.9349446  67.2667265  68.1394148  24.4241118  67.4254799
  41.7513561   6.2346631  81.5281582  40.8154917   6.4355862  81.5321350
  42.1722603   7.0486587  81.8047142  65.7755756  82.9991531  13.3455193
  65.3786993  82.2613239  13.8084793  66.2942171  83.4492874  14.0123153
  29.4440866  46.3871050  13.6112499  28.6764407  46.2773228  14.1724098
  29.3302131  47.2514248  13.2160175  64.0315437  64.9172640  15.2495503
  64.2333460  65.8315563  15.4484963  64.3002367  64.8056316  14.3376434
  84.3220997   7.6609266  59.8013687  83.4077549   7.9379451  59.7424126
  84.4034576   7.2887671  60.6794977  42.3844719 103.4308147  65.6322098
  42.3208904 104.1719055  66.2346840  43.2783079 103.1071472  65.7441378
 108.7488842  48.9926434   4.5713890 109.1632938  49.6447563   5.1364064
 108.3341408  48.3791447   5.1778883  34.2922449  96.3869858  88.6442280
  35.1039267  96.7776775  88.3205509  34.5763230  95.7646751  89.3137455
  46.6664553  20.2192163  84.6326733  46.6102409  19.7316515  83.8108730
  47.0637846  21.0551310  84.3885231  73.1593609  22.8061700  87.9381466
  72.4751329  22.1640968  88.1273651  73.8831329  22.5619292  88.5149765
   5.9568071  84.9548435   8.5325259   5.7192224  85.8335018   8.2363147
   6.4327955  84.5738602   7.7946091  32.0117545 101.0516453  89.5167923
  32.2525907 100.1980400  89.1568184  31.2787294 100.8659267  90.1036549
  91.7957115  68.0299664  75.7111263  92.4126053  68.4121561  76.3353109
  91.7379951  67.1088219  75.9648848 101.4167690  55.3305292  67.4715948
 100.9141064  54.8882103  66.7875481 102.3300076  55.1341248  67.2626686
  82.2937870  40.5756855  75.9395695  82.3744011  39.8987389  75.2676535
  82.8359699  40.2609539  76.6629076  57.3650408  68.1201124  17.8113580
  58.2168770  68.4555101  18.0908501  56.8798637  68.8980341  17.5362766
  12.3956442  75.0171661   6.6008329  12.3887074  74.0602541   6.5784335
  13.3203924  75.2518606   6.5234226  94.7194004  46.1679935  50.7522440
  93.8535309  46.1275673  50.3462076  95.0675869  45.2808762  50.6626940
  60.4285526  12.4950886  78.6868477  59.7065973  12.7225399  79.2727423
  60.1739502  12.8609896  77.8397751  68.9389849  34.5566654  72.3682690
  68.6596060  35.2911520  71.8217278  69.4365740  34.9621701  73.0783415
   4.0063688  89.8990726   5.0929463   4.5911202  89.8043251   4.3410692
   3.3756006  89.1854954   4.9972284  56.9024324 101.6048527  84.4050789
  57.1076250 101.3762093  83.4985161  57.0620251 102.5472546  84.4564056
  87.3274708   5.5730122  59.6443510  87.0574379   5.4876357  58.7300062
  87.3397636   6.5168381  59.8033285  97.8212833  38.2559037  68.5089302
  97.5107479  37.5617170  69.0902233  98.6585236  37.9327989  68.1759501
  88.7982082  40.0644255  85.7195377  88.0986786  40.6710482  85.4768372
  88.6768627  39.9221444  86.6582966  74.9558783  17.1326137  69.5874357
  75.7024860  17.3963857  69.0496397  75.3347254  16.9396567  70.4450369
  30.3355241  97.0756054  62.1125174  31.0996032  97.6054001  62.3399830
  29.9275804  96.8700600  62.9536867  26.3510823  56.2538671   8.2862872
  26.9212317  55.5339909   8.0162126  25.4977393  56.0374641   7.9105121
  43.0567646 102.7620411  91.3031387  43.5492134 103.5320568  91.0188961
  42.3101187 102.7212238  90.7055759  82.0852947  12.2505188  66.0021639
  82.9615307  12.6287973  65.9290600  82.2271919  11.3054132  65.9485626
   3.0074754  63.9089251   8.7904912   2.4102813  64.5455980   8.3977592
   3.8810998  64.2350101   8.5744351  72.5899601  14.6397841  75.7976961
  72.9051065  15.2986860  76.4163733  71.8432331  15.0545764  75.3657436
  77.2192478  20.7028699  60.8086491  78.1596088  20.7179308  60.9867716
  76.8207550  21.0789704  61.5934944  34.0849829 104.7396278  72.8451967
  33.8544559 103.9698219  72.3251200  33.2432270 105.1218319  73.0934000
   6.5539807   1.7759891  54.2559433   6.5940607   2.0781031  55.1633358
   5.8429712   2.2841673  53.8654947   2.0290282  51.1960506   9.2725289
   1.1325821  51.4927435   9.4293422   2.5478974  52.0002317   9.2552114
  54.0282488   7.9109418  71.2714911  54.5207930   8.1549460  72.0551300
  54.2786169   7.0022821  71.1044979  89.8952103  29.0445352  68.7972736
  90.4786873  28.3003354  68.6490870  89.1263580  28.8570118  68.2588291
  79.9299622  35.4054546  71.3609266  79.8251104  36.3237453  71.6098928
  79.6696234  34.9147296  72.1404409  86.9850063  54.9256897  88.1680584
  86.3210678  54.7311306  88.8295555  87.0705700  54.1136742  87.6685238
  41.6580009  15.2373338  32.6615953  42.0378494  15.8183825  33.3206320
  42.3652554  15.0935817  32.0328236  76.8107176  46.3433027  83.8005638
  76.7891884  47.2954655  83.7048435  76.7395020  46.0109615  82.9057407
 105.1490402  30.3486180  80.5253983 104.7852325  30.3278565  81.4105225
 104.7318459  29.6126127  80.0776482  11.7858720  90.5581093   8.1439084
  12.4594140  90.0382233   7.7053922  11.7994022  91.4002514   7.6891011
 107.2883797  25.7132673  61.3839340 107.3310471  25.6328583  62.3367929
 106.9211197  24.8798251  61.0894442  84.3124866  16.9765937  79.5187759
  84.9312115  16.4933383  80.0663948  83.4790707  16.9124675  79.9851751
 102.1072197  30.0260878  31.1635160 101.9366360  30.6912661  31.8303514
 102.7536678  29.4451499  31.5645719  55.4689360  11.1160266  62.3104811
  54.6812630  10.7078063  62.6698637  55.1960421  11.4529121  61.4570951
  20.2030325  67.5966167  42.8872252  20.7979918  68.0465651  43.4870577
  20.0241685  68.2390308  42.2005320  52.8755760  14.2371428  90.6672859
  52.7642298  13.3707952  91.0587883  53.7615633  14.5003867  90.9162045
  55.1746655  30.7838607  72.0811367  55.7616997  30.7712483  71.3251829
  54.8084879  29.9001122  72.1147966  91.5664577  92.3084927   6.8935668
  91.4781094  92.9801559   6.2173331  91.3696003  91.4873791   6.4427406
  96.7460537  44.8496151  71.3230705  97.1881866  44.7928476  70.4759979
  96.2309933  44.0447283  71.3788223  72.3063326  91.5281296  23.9472747
  72.1209860  91.1301899  24.7978759  73.0170298  90.9990215  23.5850787
  21.9465876  17.3591959  91.5321159  21.7514896  16.8990982  90.7157326
  21.1564088  17.2527730  92.0617580  84.3703365  38.0938673  80.0289917
  83.6440945  37.4774122  80.1226807  84.2053795  38.7613153  80.6949806
  71.2916565  23.6963487  66.2155819  71.9782162  23.7528729  66.8801689
  70.4847622  23.5704899  66.7148972   2.7316639  92.1372128  50.0931835
   2.1196714  92.7935314  49.7601128   2.3871955  91.9042110  50.9553242
  66.5286875  18.3273220  81.3263321  66.2843323  17.7179539  82.0228863
  65.9333229  19.0686440  81.4368725   8.9644253  72.8266144  17.2592604
   8.0943292  72.8460979  17.6577377   9.3518853  73.6712933  17.4886596
  10.9886134  82.9438114   0.5117036  11.0176408  83.8327312   0.8655630
  10.0816715  82.8283596   0.2282262  68.3897495   5.4294354  85.3388214
  68.3431673   6.0187423  86.0916710  68.3169889   6.0061663  84.5783520
  36.9368212 105.8868924  86.2271500  36.6131489 104.9865114  86.1991978
  36.6751950 106.2616869  85.3861332  79.2451525  16.7401755  45.7123470
  80.0187016  16.6335976  46.2659645  78.5087585  16.7215610  46.3235855
   8.0805862  53.0100679  47.9642153   8.0507964  52.6158762  48.8359737
   8.9985323  52.9416752  47.7016735  70.7154703   3.4096798  79.4418573
  70.5607176   4.0695140  80.1177979  71.6619444   3.2676989  79.4579744
  83.6446960   0.0664586  74.3607903  84.5455368   0.1357812  74.0446997
  83.1667574   0.7355184  73.8707352  46.7688560   4.2940459  27.4588037
  46.9932222   4.2969936  28.3893323  46.1201239   4.9918148  27.3666358
  76.0694551  42.0842457  87.2623444  75.9257746  42.5621080  86.4454937
  76.6811657  41.3865471  87.0272541 104.6776295  74.9334002  16.1365342
 104.6544266  74.6110439  17.0375240 104.2707729  74.2361832  15.6221521
  57.5521469  90.5913734  33.7526655  57.9182911  89.7761917  33.4096575
  57.9080963  90.6597137  34.6385908  95.3604698  77.0853233   9.4499642
  96.0221004  76.4169598   9.6281928  94.9629593  77.2621965  10.3025675
  93.7553883  53.5311365  85.0360298  93.8015842  54.2965412  84.4630909
  93.8918209  53.8821077  85.9160519  57.8287458  31.7982721  69.0121222
  57.9808235  31.5521312  68.0996990  58.2811499  32.6357770  69.1128635
 103.6235905  28.4290791  52.1339989 104.0345669  29.0769887  51.5616798
 103.8859463  27.5847840  51.7671633  91.2471962  17.3667812  77.5227547
  90.6639194  17.0873475  78.2283974  90.9070492  18.2204175  77.2547340
  78.2675934   7.8588414  53.7024641  78.5802126   8.3882308  54.4361162
  78.1344986   8.4875232  52.9930449   1.2814535  51.2419891  67.8690243
   1.4726560  51.3628721  66.9389391   2.1317479  51.3237190  68.3009386
  77.7705288  12.7207792  56.7985964  78.0025482  13.5335755  57.2477722
  76.9419670  12.4548662  57.1973610  82.1098328  16.3024616  82.5461960
  81.5647221  16.9428289  82.0890045  82.5187016  16.7987299  83.2552624
  84.2288399  37.1991277  67.3824644  85.0857639  37.2655058  67.8037930
  83.6848259  37.8370976  67.8442717 102.0938969  19.5759451  90.6061554
 102.7716637  19.9786210  91.1490345 101.7468166  18.8647747  91.1446667
  30.9887600  63.0633402   6.7237055  30.9718513  64.0112114   6.8559432
  30.1217008  62.8544998   6.3761026  73.3381176  46.2164927  89.8099041
  73.1719017  45.4205704  89.3048191  74.2913485  46.2563038  89.8873806
   4.5458052  83.5988522  10.5495834   5.1466507  84.2320156  10.1567495
   3.7320572  83.7030125  10.0564337  10.2360892  28.1166863  66.0761213
  11.0103202  28.6767983  66.1315489  10.1192093  27.7809858  66.9648695
  96.4517117  19.7799337  61.3849354  96.5250683  19.9567735  62.3227930
  97.3241711  19.9649751  61.0373545  59.3886805  82.6463413   7.1744490
  59.9832392  82.4486923   6.4508009  59.4503117  83.5954094   7.2826809
 103.6715698  35.3837156  76.1504126 104.2444515  35.8597350  76.7516184
 104.0659523  35.5162382  75.2883577   8.3936590  87.6745319   3.5023528
   7.8404313  88.0227852   2.8031471   8.6893052  86.8255997   3.1734908
  81.0402489  39.9147344  87.2046471  81.0037899  40.7525301  86.7431355
  81.9367409  39.8626590  87.5360489  90.4246807  33.1510210  73.3650923
  91.2521839  32.6756978  73.2905865  90.1670170  33.3266211  72.4601030
  94.8051834  20.1949072  91.8949318  95.6566048  20.6316972  91.9181824
  94.1779137  20.9010148  91.7394447 105.1443005  45.6680298  60.7570934
 105.6439304  45.7566166  61.5687275 104.9173355  44.7390461  60.7157421
  22.8521967  60.9690619   3.5207555  22.7687502  60.1663113   3.0061144
  22.4531317  60.7554340   4.3641657  88.9946365  48.2999086  83.5466480
  89.7313309  48.5217524  82.9771709  89.4011307  48.0329990  84.3711185
  15.4805386  67.5348997   4.2809153  16.0362267  67.8001022   5.0137943
  16.0138357  67.7010679   3.5036033  18.9329350  69.3116951   9.5931268
  18.7527561  70.1181841   9.1100729  18.1812680  69.2091036  10.1768255
  61.9072771  30.5535030  64.0113306  61.3419199  31.3197351  64.1087770
  61.3551044  29.8144341  64.2665100  73.1075525  34.4410133  89.4319153
  73.7538147  34.8314857  88.8436127  72.3294353  34.9892068  89.3306923
  72.3968315  21.8032193  57.9552841  71.5200901  21.5445542  58.2392693
  72.3938513  21.6605091  57.0087862 109.3616199   4.0502197  68.6896515
 110.1223660   3.6787894  68.2429504 109.2613411   3.5151690  69.4769859
  11.2143588   8.9766622  77.1842813  10.5260146   9.5983160  76.9477224
  11.5283597   8.6367118  76.3463879 106.5322208  72.6728106  61.4385319
 105.6885719  72.2212505  61.4625406 107.0921993  72.1061039  60.9079695
  10.5646479  41.0659885   4.5770195  10.4366934  41.4504147   3.7097955
  11.4184046  40.6363153   4.5249468 110.0472260  37.7608466  73.4306049
 110.6397247  38.5008383  73.5632229 110.3530598  37.3511839  72.6213598
 105.5750942  33.8182068  84.6825981 104.8265076  33.8457727  84.0867043
 105.8940887  34.7203207  84.7083378  99.8236084  19.5757759  66.5816641
 100.4659843  20.2426910  66.8241739  98.9758110  19.9924171  66.7362070
  67.0214987  20.7254672  59.9546623  67.1017408  20.2768970  59.1128922
  66.5401793  21.5280175  59.7534657  84.7373867  59.9026728  57.3268843
  84.3586731  59.0916157  57.6659870  85.6251907  59.9202204  57.6842785
  68.7236595  35.7233834  87.2538280  68.1351566  36.4742708  87.1759510
  69.4146919  35.8932590  86.6136360  80.7916260  34.3433237  88.6287117
  80.4448318  34.9195910  87.9476261  81.7400455  34.4653416  88.5856533
  58.7124205  12.5101578  63.3967161  59.2706919  12.5769448  62.6220560
  57.9143095  12.9816818  63.1581450  85.5646610  35.0135899  76.2853050
  85.9096432  34.1480517  76.0660696  86.0113144  35.2506232  77.0980501
  86.8161297  31.0394406  72.8741264  86.5793324  31.9419098  72.6603317
  87.7267551  30.9572411  72.5908804  30.6065774  29.9015594  72.7177334
  31.4664555  29.8642635  73.1366062  30.5122280  29.0512729  72.2883844
  79.6511316  14.2233801  74.9858046  79.5407009  13.7381363  74.1681385
  80.4949474  14.6650231  74.8901320  60.8653402   6.2952536   3.7668958
  60.8712482   6.4590240   4.7099632  61.6216707   5.7278919   3.6175814
  58.1096888  21.6293454  67.4727869  58.5529947  22.4487162  67.6926565
  57.8232956  21.7475200  66.5671110  23.0139391 104.9489211  49.1678286
  22.4990456 105.5327469  49.7248411  23.1005375 105.4221329  48.3403015
 104.0048790  77.2639656  10.7198393 103.2563400  76.6733265  10.6357813
 103.7358570  77.8985405  11.3840461  49.3558502  14.3783355  44.6959829
  49.5894909  15.3065455  44.6875048  49.9714279  13.9820302  45.3126192
  11.9365561  87.9069996  18.3387220  11.5319717  88.4990788  17.7046955
  11.2003946  87.5445271  18.8315809 100.2767754   0.4820297  68.0852175
 100.7521439   1.0230013  68.7157822 100.4926777  -0.4176143  68.3306980
 105.1057720  96.3998032   3.5493356 104.5539665  95.9017849   4.1524249
 105.6759644  96.9171333   4.1180959  45.7279253  82.8586197   3.8716406
  45.4801178  82.0365524   3.4485322  45.4917955  83.5352612   3.2371110
  93.3937645  60.4622316  85.5956745  92.6512337  60.9679079  85.2652645
  93.8713455  60.1966333  84.8097992  49.5667505 101.1728668  83.9321804
  49.2548656 101.8017101  83.2814026  50.0500298 101.7034435  84.5655537
  89.2609882   6.7040837  90.9900188  89.0380096   6.4986980  90.0820923
  88.4191513   6.7220223  91.4452267  90.4832840  24.9693370  77.7784491
  90.4569149  24.0943122  77.3913240  90.1142788  25.5405045  77.1047783
  53.3353949  96.5355015  80.2268028  53.7452459  97.1917343  79.6632290
  53.6191893  95.6967163  79.8632956  56.5304661  23.4929585  76.5843487
  55.9864378  23.6565590  75.8139610  57.0619726  22.7336097  76.3453436
  91.5538025  87.6619053  77.8343487  92.3006344  88.0687046  78.2736492
  91.3713455  86.8764210  78.3500576  45.7659674  24.7635722  69.0006590
  46.1091661  24.7098160  68.1087255  46.4706421  25.1710224  69.5042896
   9.3586534  84.9851036   4.6504113   9.9244601  84.2574120   4.9083832
   9.3276304  84.9373055   3.6949092  33.1903863   8.6489856   6.1530817
  33.8763332   9.1525477   5.7147497  33.1052160   9.0589756   7.0138294
   4.7550690  60.5561066   2.4962193   4.5773366  61.4228058   2.8615624
   4.0409765  60.0079870   2.8215975  92.0093727  92.1595764  13.4743357
  92.9534912  92.0255852  13.5574770  91.7785358  92.7089310  14.2234421
  89.4647980  61.9137812  72.8298998  89.7018814  62.0355606  71.9105577
  89.4670296  60.9646749  72.9541254  72.9597759  26.9588923  90.0027084
  72.9636621  26.3726258  89.2460632  73.8044643  27.4073625  89.9625587
  63.7543535  10.1391780  60.3915358  64.3436384  10.8711708  60.2094460
  63.5664654  10.2100468  61.3274384  65.9474468  32.8598404  78.3514643
  66.4684391  33.4844184  77.8467846  65.0898838  33.2765436  78.4361601
  75.7158661  29.5680094  77.6627493  75.1025295  30.2279067  77.3393631
  75.1580763  28.8592887  77.9833937  84.7058201  31.6526842  49.9623203
  84.6275997  32.3069787  49.2680502  84.6276760  30.8128142  49.5098352
  98.0021191  15.6409431  81.4421749  98.6386681  15.9746754  80.8099937
  98.0305672  16.2682414  82.1646214  42.7360296  52.0885372   3.2216755
  41.8180418  52.0201778   2.9592696  42.7503204  52.8021479   3.8594732
  74.4479084  15.0721908  54.9329901  75.0871563  15.4742146  54.3447971
  74.5704603  14.1305649  54.8123550  27.2704148  85.6914520  40.4592371
  26.7697263  86.2835884  41.0204124  27.9783821  86.2332344  40.1106834
  44.2382765  33.9597321  88.2895851  45.0509548  34.3644261  88.5929203
  44.0290546  34.4218159  87.4778366 100.2631092  73.0048275   2.7813852
  99.9975300  73.8950586   2.5507677 100.3668880  72.5603056   1.9400398
  89.2071056  43.3550596  55.8029175  88.6459446  43.8346052  55.1935291
  89.1128063  43.8218021  56.6332722   3.8689053  77.7978325  19.5782757
   4.2510480  78.6699247  19.6765232   2.9633921  77.9614353  19.3146253
  48.6212492  14.1742122  90.9919930  48.5638618  13.2396114  91.1906338
  48.9782906  14.2089736  90.1045609  92.5740814  30.5561852  71.3571835
  92.3036957  30.9545588  70.5298853  93.5298729  30.6071019  71.3464403
 111.7528343  24.0803742  69.5854950 111.8278503  24.7842073  70.2298689
 110.8122444  23.9157271  69.5190525  82.1883638  84.0075634   0.4220661
  82.3053224  83.5825704   1.2717327  81.4105232  83.5910390   0.0509724
  64.1067028  11.8371058  30.1455235  64.2747402  11.2203836  30.8580184
  63.9988995  11.2848604  29.3711615  48.6041832  14.1292191  62.4702311
  49.1078234  13.7082756  61.7735338  48.4042549  13.4211886  63.0825615
  88.1832027  29.4609642  50.6884623  88.1330490  29.7932196  49.7921801
  87.3910809  28.9338851  50.7931900  99.8094368  70.8624887  24.8724389
  99.2083454  70.2115059  25.2345705  99.8733711  71.5336275  25.5519390
  87.6408100  58.7773752  57.9194069  88.1548214  57.9979706  57.7083254
  87.5919628  58.7804174  58.8753557  16.7408075  79.2090915   0.6224045
  17.3440256  79.2041133  -0.1207844  15.8837022  79.3844913   0.2340397
 101.0519409  44.4214296  83.6219788 101.1295700  45.1590347  84.2270851
 100.6744480  43.7175655  84.1495228  24.0678453  67.1352148   2.1262318
  24.4044948  67.5941086   2.8958523  23.1162858  67.2050858   2.2029151
  91.4688110  10.7157326  58.4652233  90.6602478  10.8968866  58.9444304
  91.2564468   9.9633408  57.9129171 111.0009193  57.5113535  62.4561834
 110.8126545  56.6530561  62.8358030 111.3298702  58.0307913  63.1898117
  98.8747120  32.2611666  74.9583530  98.0904865  32.2194743  75.5056143
  99.5529842  32.6081491  75.5378199  58.7330437   0.4263935  87.0229053
  59.0414858   0.7912075  87.8523636  57.8114223   0.6808776  86.9772911
  97.7785015  78.1082106  27.9635787  97.9477215  78.1003332  27.0214868
  98.4570217  77.5434208  28.3335257   8.0003016  34.0542843  91.8866422
   8.4726565  34.8866798  91.9019725   7.1447461  34.2711880  91.5162279
 108.6610413  85.4831314   1.7831436 108.4479523  85.1648235   0.9059300
 109.0462589  84.7266769   2.2254151 108.2944202  49.2298985  37.5462127
 107.6211643  49.9102497  37.5558519 109.0374470  49.6217012  38.0051470
  26.5257335  83.4189510   5.0740349  27.4105597  83.0572605   5.0240970
  25.9974766  82.7098846   5.4406464  35.6856084  70.9327984  15.7041800
  35.2717996  71.0072851  14.8442698  36.1785626  70.1133490  15.6625879
  62.2964191  37.5883389  84.2072582  61.7839289  37.5669408  85.0154209
  61.6622066  37.3969769  83.5163307  29.2214656  69.4407129  12.9251063
  28.9453292  68.5266113  12.9914176  28.8914347  69.8492670  13.7253547
  98.9938450  66.5419483  21.1501336  99.4310760  66.0076237  21.8131256
  99.5634174  66.4851379  20.3829336  23.9908504  13.7746990   3.4687304
  23.5085082  13.7956548   2.6422077  24.2037892  14.6910989   3.6450782
  84.7775745  38.0778623  90.5490017  84.6053886  38.0919647  91.4904881
  85.1972103  37.2314644  90.3949165 111.7786217  37.1902966  85.0783157
 112.2527218  36.5564656  85.6165791 111.2606812  37.6962566  85.7043934
  66.5018654  30.5729723  70.2364397  66.6938639  30.4692197  69.3044472
  66.9756746  31.3644671  70.4919243  13.1834686  81.5503120   7.2075802
  12.5893700  81.9097614   7.8664255  14.0587509  81.7302704   7.5506938
  95.6154156  47.3518419   1.3441549  96.1390781  47.0128155   0.6181600
  96.1460304  47.1812391   2.1223444  80.7412434  27.7788615  77.3239517
  80.7883739  28.2083488  78.1780910  79.8197985  27.8447199  77.0732737
 105.5457115  33.0605984  53.3983040 104.6920872  33.1057143  53.8290262
 105.7964897  32.1388721  53.4595919 101.4652729  50.3209066  14.7799671
 101.6791725  49.6135235  14.1716170 101.0299873  50.9792137  14.2383075
  31.5805912  78.6017656   1.0062396  31.0396099  78.5218048   1.7918459
  31.8944788  79.5058918   1.0225871 106.8862057   5.1181853  55.7877350
 106.7731571   5.0901008  56.7378235 106.8736553   6.0507894  55.5725050
 101.4454365  39.1750479  62.9825497 102.2214127  39.1434312  62.4230003
 101.7614460  39.5379400  63.8100052 108.2591343  72.3670483  11.6896653
 109.1519642  72.1767378  11.9775462 108.2003880  71.9768906  10.8175647
  77.1457911  16.9320571  11.9052029  76.5363169  16.4437735  12.4586940
  76.7462349  16.9145250  11.0355592  68.3882475  73.4850883   8.2997203
  68.3373880  74.4323635   8.4274334  68.2209349  73.1171083   9.1673774
 111.1553955  92.3570442   8.6397380 111.7452717  92.2129440   7.8998041
 111.6393375  92.0316124   9.3987638  50.6516981  58.0775118  16.6842437
  51.4788866  58.5318375  16.5243006  49.9811411  58.6813498  16.3649237
   8.5678083  73.6630487   3.5300189   8.6817873  72.8100109   3.1110132
   8.5519904  73.4693193   4.4672760  92.3360920  35.9661126  75.6673002
  91.3964748  36.1352849  75.7359791  92.7105904  36.3739705  76.4480972
 109.6984863  47.8865480  47.4960184 110.4422855  48.3035660  47.0611668
 109.3502235  47.2782373  46.8441725  52.0354033 101.0532475  72.8108168
  51.7904758 101.5792751  73.5720873  52.6376581 100.3952694  73.1580830
  26.1333990  77.2552919  12.7380252  26.2206578  76.3140917  12.5871694
  26.7055678  77.4322414  13.4847140  17.1508896  90.7662106  69.8422670
  16.2976229  90.9944439  69.4733810  17.7506399  90.7993507  69.0969944
  92.5304031  40.5898094   0.2496473  92.5152206  39.6327591   0.2571149
  91.8162251  40.8360958  -0.3381655 103.3001232  66.8407679  20.0442839
 103.5289669  65.9114504  20.0290871 103.5080147  67.1240950  20.9346437
 110.5301571  28.8802671  55.3822899 110.6142044  28.2072115  56.0576868
 111.0798264  29.6001744  55.6918621  33.8031912  62.2967863   1.8406437
  34.0135908  62.6660395   0.9829637  33.4243798  63.0273390   2.3295435
  71.6641665  33.6806870  84.6349335  71.5124941  33.4286213  85.5458069
  71.1843538  33.0294752  84.1231346  75.9318304  15.8430898  71.9203424
  75.8815765  16.5508866  72.5627804  75.3332281  15.1744711  72.2532940
  57.3199749  86.8303108   2.5296280  58.1041908  86.3111591   2.3515314
  56.6109943  86.3461781   2.1063231  62.1450901 103.9108181  68.9559078
  62.5116777 103.2302284  69.5203829  61.2053871 103.8918018  69.1371107
  88.3708286  80.9427834  11.8582380  87.4963760  81.0488701  12.2328162
  88.8985348  80.5942917  12.5767946  85.3519726  39.9412823  75.8164501
  85.8966351  39.2562914  75.4286861  84.7186184  39.4672990  76.3553762
   2.2994521  14.0265083  57.9902172   3.2282233  13.8138115  57.8986931
   1.8516511  13.1845617  57.9075575  86.3058949   2.6613215  80.6301689
  87.0625114   3.1053966  81.0130024  85.8166027   3.3571300  80.1912212
  15.8444750  60.0272179  18.5459077  15.5314851  59.2154837  18.1467092
  15.0516248  60.4587841  18.8642895  95.9063625  98.9008236   2.7767733
  96.1120510  99.6353245   3.3550784  95.2616310  99.2525673   2.1629074
  89.3732548  57.2481155  71.4741230  89.5451832  56.9905853  70.5683899
  88.4213924  57.3373699  71.5211821 108.6349773   4.6374238  91.7226505
 109.2290306   4.3175012  91.0436916 108.9873219   4.2792344  92.5373745
  96.2030888   2.5050250  56.5486383  96.7047310   1.9376068  55.9633017
  95.8996677   3.2191110  55.9880590  56.0345745  33.6225438  77.2264242
  55.8103466  33.6718059  78.1556845  56.0410976  34.5336318  76.9329882
  90.1818848  47.2836256  77.7012920  89.8643589  47.8128672  76.9696379
  90.9128284  47.7862024  78.0609560  92.5202370  53.2281494  47.2995234
  92.9796696  53.9642715  47.7035999  93.1996250  52.5679493  47.1624041
  85.7920456  41.6030407  87.7670479  86.3168144  42.1834803  88.3183479
  86.1627865  41.7054176  86.8905163  81.6016197  20.4829311   2.5156939
  80.7135773  20.2099228   2.2852977  81.7594051  21.2608814   1.9807795
 107.6824093  63.6256647   4.1002077 107.9989719  62.7383232   4.2694443
 108.3771706  64.0332747   3.5831138  28.6909103 106.0872746  79.2888451
  29.1067028 105.6180859  80.0121689  27.9226017 106.5011978  79.6820354
  12.1503770  87.1982574   5.8264232  12.0465434  86.2982750   6.1354220
  11.2791705  87.5844288   5.9164613  78.3125353  39.7411656  88.6137772
  79.2410088  39.9351025  88.4850979  77.9702711  40.5053425  89.0775871
  95.8095741  10.5279744  74.2797661  96.6659355  10.2461648  74.6014166
  95.2393150   9.7727591  74.4235897  34.0221691  71.2762308  32.3541403
  33.4791350  71.5129471  31.6022682  34.5144200  70.5090427  32.0619941
  78.1691456  61.0281372  52.5865650  78.8308334  60.5231237  53.0591822
  78.5951948  61.2710619  51.7645550 107.0923615  80.7603264  32.0017195
 107.1626472  81.2645054  31.1911011 107.4776840  79.9102640  31.7892408
  85.2771473  45.5563021  70.5817509  85.8256531  46.2724018  70.9020185
  85.8281708  45.0977707  69.9474382  83.4360600  44.1866732  86.7224693
  83.7048721  44.2614746  85.8068466  84.1175461  44.6486998  87.2106743
 104.1094017  85.2855206   2.2414321 104.8293018  85.8883572   2.0555420
 103.3510113  85.8531952   2.3786503  95.4574776  32.4867964  69.3333673
  95.3113842  31.9519711  68.5530806  96.3494682  32.8190446  69.2324400
  69.1643095  21.4074516  73.9900684  69.4007397  20.4907274  73.8488150
  69.6919918  21.8915033  73.3548689 103.2119846  91.8477440   3.3883348
 102.3822594  92.2889328   3.2063055 102.9603100  91.0380077   3.8324249
  92.7242565  27.5197411  54.2438984  92.3680496  27.3120284  55.1077318
  92.1399117  28.1954002  53.9000082  70.1179266  26.4576268  80.6797981
  70.3754091  26.0040212  79.8771954  69.6123266  25.8091283  81.1697483
  25.9944749  83.8243389   7.7380735  26.5267611  83.6956978   6.9529909
  26.6007900  83.6807442   8.4647053 100.8341599  20.7993841  81.7555904
 101.4187336  21.1832619  81.1020279 101.2917233  20.9215856  82.5874233
  83.1845856   1.0300019   1.5093113  83.1398106   1.2369850   0.5758315
  82.4372196   1.4891320   1.8925633  77.1223116  52.2848892  81.7399693
  76.4340115  51.8964434  81.1999893  77.7008152  51.5528584  81.9537449
  81.9354153  31.1537790  34.4832039  81.9391441  30.4965258  33.7873340
  82.6558304  30.8971882  35.0588751  43.8819933 103.9197922  15.2927077
  44.2913437 103.2824135  14.7075486  43.0460072 104.1263103  14.8747289
  10.3247356  77.8851843   4.9390173  11.2004948  78.2658339   5.0052208
   9.7532821  78.5233545   5.3661120  76.6445446  47.2523069  60.3650284
  77.0385265  47.0812654  59.5096016  76.5558052  48.2046747  60.4017401
  78.6899900   4.4010264  84.6314335  79.4761705   3.8632530  84.5368195
  77.9652357   3.7789863  84.5679379  45.9469032   2.9049131   7.0318907
  45.8821058   3.8228178   6.7682940  45.4317904   2.4312353   6.3788050
   5.3274173  80.1841164  85.2404785   4.6425575  79.5512056  85.0245667
   5.8960646  79.7211552  85.8557320  30.9081602 100.5300236  20.7037187
  30.3560925 100.5137253  21.4855051  30.9314728  99.6199703  20.4079533
  34.9190609 104.0481686  83.6680984  34.1074793 104.0908712  83.1623936
  35.5139725 104.6474155  83.2173061  17.0661771  86.0947800  48.4562731
  17.7464116  86.4198875  47.8665113  16.2444890  86.2983608  48.0094910
  13.9280689 106.1452389  39.5188594  14.7392917 106.1883450  40.0251102
  13.9552331 105.2871609  39.0955305  80.3659058  17.6369655  76.1824369
  80.6365299  18.1394744  76.9508600  81.0687160  17.0001483  76.0530138
 110.0672722  93.0779648  41.1806345 110.1342297  93.9381313  41.5952015
 109.8853588  93.2690620  40.2605152  22.4146628  75.6726360  25.8028960
  22.4864674  75.1069498  25.0340843  22.5364566  75.0825405  26.5466619
 105.2203941   4.8659772  78.6165905 104.3475342   5.1747096  78.8595676
 105.3638077   5.2197033  77.7387857   5.9494156  77.5923443  64.3881512
   5.9608400  78.3282185  65.0001907   6.6045123  76.9848633  64.7317266
  90.0725460  49.2478180  64.4109821  90.2901840  49.1294289  65.3355646
  90.9204674  49.3181992  63.9724493  98.4888744  52.1515131  75.8131886
  98.0862904  51.3731480  76.1983061  98.9744091  51.8209791  75.0573874
  54.6745110   1.6427550  49.8266125  54.0126514   1.9472332  50.4474688
  55.1103401   2.4417415  49.5301294  26.4147568   4.0478182  43.8525772
  25.8252382   3.4475368  44.3090439  26.6796684   3.5713094  43.0658150
  63.3025599  20.1448822   2.6232338  63.5265923  20.1403022   3.5538363
  63.5422850  21.0217595   2.3234814 106.2907410  45.6294823  54.9256182
 105.4096985  45.9988785  54.8661184 106.2050915  44.9042177  55.5444002
  88.8984394  40.7333803  61.7702150  88.0539131  40.4233932  62.0972061
  89.3459320  41.0718632  62.5457191  54.1027021  16.4299560  19.4871104
  54.4088221  15.8496368  20.1840687  54.3261909  15.9706700  18.6775792
  16.9732630  69.1144609  30.3404737  17.3226023  69.0527344  31.2295079
  16.2729812  69.7640324  30.4028654 107.4865437  32.3678541  88.4816837
 107.3757648  32.6752782  89.3813801 107.8765583  33.1107688  88.0210400
  14.0944135  72.6003504   5.3847826  14.3677294  73.5098076   5.2646786
  14.5845902  72.1134615   4.7222883  18.2279754  69.2376184  23.8600135
  18.2509530  70.1559639  23.5910511  18.9009500  68.8148832  23.3265042
 108.3743286   8.1551182  76.4142799 108.9984035   8.3972532  75.7300758
 108.3623028   7.1981043  76.3997126 103.0157375  51.0268450  51.0639763
 102.2584152  50.6914854  50.5841494 102.7741337  50.9371138  51.9858265
  96.6387463  42.0579815  79.1556406  96.7966843  42.5770617  79.9442101
  96.9588470  41.1833525  79.3765306 100.3857136  75.8079004   1.5276217
 100.4053688  76.2079573   2.3969901 100.5007362  76.5415716   0.9236981
  99.4124317  44.0060139  88.9889431  99.0939808  44.9079895  89.0244484
  99.9338627  43.9045906  89.7852230  99.1833878  28.4866476  61.5770149
  98.3851528  28.9683175  61.3601017  99.7895241  29.1571021  61.8921661
  21.0428405  42.6685190  22.0623684  20.8019209  42.0088100  22.7127314
  20.6991339  42.3275280  21.2366414  86.6690063  31.0014582  68.6592913
  87.2811890  31.1532259  69.3793058  85.8320427  30.8262324  69.0894365
 109.4132996  73.2719088   0.0512501 109.6587276  72.6957178   0.7751305
 110.1063156  73.9316368   0.0247006  57.4555969  39.3462873  73.2569456
  58.3082342  39.4512153  72.8347635  56.8230581  39.4307923  72.5435162
  99.2184830  56.6748285  77.9834843  99.9301052  56.2870932  77.4740839
  98.5189629  56.0221529  77.9531145  77.6733923  51.5898991  87.9406929
  77.4798870  52.3884439  87.4496651  77.1910334  50.9029865  87.4805737
 110.2720737  62.9774046  83.4706497 109.8066235  63.5240936  82.8376293
 109.7533035  62.1745396  83.5208797  72.6485872  17.3670495  62.7852821
  73.0539989  18.2293630  62.6942492  72.6031113  17.2223377  63.7303877
  95.5259132  55.1745844  47.1349764  96.0984135  55.7025003  47.6915550
  94.7414875  55.7111597  47.0210028  68.6400557  30.2134323  79.4926167
  67.9749441  30.0213480  80.1536465  69.4679165  29.9739194  79.9091673
  96.3254547  45.0066280  54.1716480  97.1891880  44.8718691  53.7817335
  96.4249611  44.7194433  55.0793123  66.5127182  12.1458626  14.3664253
  66.3803959  11.8213797  15.2571738  66.2036324  11.4354110  13.8043261
  81.4900875  64.6338701  75.2306557  81.8160152  63.7407160  75.3414583
  80.6934166  64.6655464  75.7603312  88.6504173  27.7847481  78.4516335
  87.7978134  27.4784946  78.7606907  88.6746311  27.5340128  77.5281763
  76.3653088  40.3457165  80.1498699  76.7975569  40.0345325  79.3545389
  75.4903078  40.6050110  79.8611307 110.6121254  71.9285822  67.7889347
 109.9927616  72.1373081  67.0896053 111.4495754  72.2720480  67.4775934
 103.9225769  37.1910167  90.3506279 103.1766510  36.9125724  89.8193264
 103.5833931  37.2157454  91.2453747 110.9280872  91.7791557  82.7709293
 111.5652370  91.6129589  83.4656525 110.2611923  92.3278046  83.1838036
  94.2336655  63.4592009  71.0472441  95.1850224  63.5625792  71.0257101
  93.8971233  64.3527174  71.1151028  10.5286932  72.0587063  13.0339026
  11.1101127  72.4392557  13.6922061   9.6482235  72.1987963  13.3822989
   1.2977369  40.2126217  72.0469475   1.8975329  39.5253730  72.3370647
   0.4791287  40.0257730  72.5065136  58.1759453  94.1474533  73.2202196
  57.6352215  94.6061134  72.5771952  57.7602625  94.3368435  74.0613937
 108.6306000  40.6060171  88.5189819 108.8095760  39.7126698  88.2255077
 108.6432457  41.1286068  87.7171326  89.3766689  45.2082062  63.3933496
  89.0613747  44.4925690  63.9453363  90.2672577  45.3744888  63.7022781
   7.2248596  45.5679846  80.1553059   6.8568927  46.4502096  80.2053928
   8.0257374  45.6713295  79.6413565 104.6615219  38.1545424  63.3610106
 105.0715351  37.3347163  63.0853176 104.9696159  38.8016415  62.7265263
  70.4698038  10.2938926  31.6192126  69.9466228  10.0947964  32.3956633
  70.4520702  11.2488961  31.5568781   8.5428399  52.6835728  73.8399363
   7.7158546  52.6252127  73.3614779   9.1922015  52.8988838  73.1704569
  57.5290012  93.1561470  80.6485844  57.4057055  93.9766026  80.1712322
  57.0595169  92.5037384  80.1287937   0.2792148 105.9906578  13.1869233
   0.6356732 105.1849747  12.8127038  -0.6216512 105.7677364  13.4213972
  54.4487619   2.1165077   9.9930489  54.2313433   2.1643358  10.9240019
  53.6118650   2.2393939   9.5450163 104.8902607  85.7826042  87.0123863
 105.1241970  84.8640537  87.1456718 104.1953850  85.7597542  86.3544655
  93.7416363  28.9452910  67.0310926  93.7221241  28.1687498  66.4717722
  92.9929638  29.4672251  66.7424583 110.2667618  68.0941296   8.8404274
 109.8395824  68.2562971   7.9993290 110.6736469  68.9302444   9.0675539
  35.8617067  96.6134262  23.2729554  35.7073951  95.7647038  22.8581190
  36.8100524  96.7343330  23.2254744  20.5681682  45.6262445  73.8276768
  19.7508979  46.0584259  73.5796499  20.3241515  45.0500298  74.5520163
  87.1426392  78.6730385  28.7198424  87.8076649  78.5126829  29.3893552
  87.0390415  79.6245480  28.7082148 103.9346981  34.5383835  90.9463787
 103.0511761  34.2194390  90.7622623 104.0036488  34.5152211  91.9008064
  57.9849339  87.8369045  10.3556192  58.8399267  87.7562332  10.7783639
  58.1598091  87.6745415   9.4286412  68.2019377  76.9287491  70.7080412
  68.1755400  76.3724279  69.9295521  67.2822475  77.0714378  70.9317541
  74.9910593  14.0762126  48.2063389  75.9226370  14.2828560  48.1308937
  74.8734617  13.8320696  49.1243792  99.1250038  40.3234386  61.7028952
  99.8711491  40.0156689  62.2174597  98.8318348  41.1142921  62.1554804
   0.7428697  43.1513262  84.1089153   0.8053326  42.7209520  84.9616146
   0.8826829  42.4480200  83.4748363  95.5472088  28.0985141  68.9961529
  94.8742580  28.5534263  68.4897709  95.0578976  27.5946164  69.6464634
   1.2535463  40.2156734  69.1167784   0.3212990  40.4313087  69.0913296
   1.4812766  40.2466726  70.0459766  15.8503819  80.3415298   3.0058184
  16.0499430  79.8424339   2.2137883  16.2619925  81.1936569   2.8620189
  30.2327657  74.2837572  12.8362536  31.0980248  74.4185734  12.4497533
  30.3406024  74.5270681  13.7557125  37.0146847  80.0956631   1.1193638
  36.1177063  79.7934866   0.9767204  37.1276760  80.0704384   2.0695366
   3.6474496  50.0968742  51.9816065   3.9012352  51.0103321  52.1135902
   3.8884872  49.6608353  52.7989197 100.6784248  32.1158409  60.0059986
 100.9961414  32.9992056  59.8190451 100.9861565  31.9335341  60.8938599
 109.5234108   6.8820941  90.1080990 108.9753819   6.6450781  90.8562469
 110.0114155   6.0837686  89.9062252 104.6351433  56.9618559   3.1963855
 105.5907345  57.0063972   3.1635112 104.3651390  56.9300604   2.2786064
   3.6356276  37.9327512  39.7904944   3.3366355  37.7935743  40.6890869
   3.1280023  37.3101306  39.2700219  26.4396167  12.8392053  50.8676815
  25.8398557  12.7603197  51.6095018  26.9926357  12.0598757  50.9228706
  39.3553400  46.7054939  91.7081165  39.6688032  47.0768642  90.8834553
  39.4645953  45.7604790  91.6020775 100.5809021  20.9656811  72.1689892
 100.8145714  20.1063943  71.8179131 101.3270950  21.5243125  71.9513845
 103.7507439  22.9975390  45.2470255 103.2371998  23.3390284  44.5149803
 104.4967175  22.5626111  44.8340034  98.4804249  57.8585386  59.1094208
  97.6249790  57.4322796  59.0570593  98.6522579  58.1610775  58.2176924
  27.1721268  45.4174232   1.3636653  26.8471837  44.6000671   0.9860732
  27.9901505  45.1728058   1.7963712   0.8360196  58.8471794   5.6620318
   0.9731674  58.2780933   6.4193714   1.7011379  58.9227343   5.2594239
  94.8589516  25.1083302  64.6584511  95.7036400  25.0225663  64.2164373
  94.2216969  24.7834969  64.0223551   3.6517271  40.0302124  65.4309225
   3.4279463  40.9480286  65.5850887   4.5512351  40.0545645  65.1045418
  53.8883877  55.7705975   3.0410883  53.6596155  55.4299641   2.1762967
  53.1662369  55.4951048   3.6057436 101.5867138  73.7280989  88.4511757
 101.2979507  73.4564590  89.3224239 101.6661453  72.9106712  87.9595089
   5.3976107  29.2969823  86.2089539   5.1622963  28.5576558  85.6483650
   6.3304877  29.1759562  86.3859367  72.0418167  51.4083529  86.3337803
  72.5975084  50.6300163  86.2934685  71.1482573  51.0651922  86.3290596
  94.5167351  47.1138287  79.1126728  94.6808624  46.3134193  78.6140394
  93.6712265  46.9634914  79.5354748  31.4570427  95.1860428   8.4521848
  31.2267351  94.6676445   7.6811779  31.0721517  96.0465336   8.2859397
 100.8540821 100.1885128   9.4133228 100.9803772  99.6996593   8.6001205
 100.5254459 101.0420799   9.1310835  66.6601753  81.2513351  75.5580950
  66.2063837  82.0916367  75.4932070  66.0273600  80.6115627  75.2318001
  76.8105984  94.0165710  88.1447887  77.4064589  94.7644997  88.1025410
  77.3471022  93.2678986  87.8842258  26.7578292  91.2405396   0.9453145
  26.1986947  90.6572056   1.4584561  27.5403166  91.3574696   1.4840852
  13.0010045  63.2437038  44.8444366  13.9206684  63.4087563  45.0522995
  12.8675044  63.6667347  43.9962292   1.6310893  56.6002464  89.2896557
   0.7296734  56.3919497  89.5352077   1.8666309  57.3406410  89.8487377
   3.9531466  40.5550671  85.8764744   4.4278881  40.3497267  85.0710583
   4.5658022  40.3352308  86.5782928  10.6332600  68.9267206   8.8543904
  11.3883841  68.3726501   8.6568522  10.1161671  68.4142160   9.4758266
 107.8957081  83.2441139  66.4947271 108.2051373  84.0474701  66.0762835
 107.0421410  83.0789185  66.0942602  16.6533923  74.3110466  16.7001951
  16.4268899  75.0419426  16.1251116  16.0050297  74.3496752  17.4033058
 104.0297699  40.5487347  72.6012611 103.1702900  40.1796818  72.8045368
 103.9680672  40.8071423  71.6816664  69.2106009  30.4819012  82.6490974
  68.4522247  29.9963641  82.9736805  68.9873934  31.4010239  82.7961540
  96.8960857  34.2245412  59.6489286  97.7906513  34.2911649  59.9829054
  96.9799232  34.3765402  58.7075996  93.6551094  41.1315870  81.1254025
  93.5226250  42.0683575  80.9800053  92.7843380  40.7970047  81.3399792
  13.7871981  46.3779259  21.3593268  13.7214279  47.2017050  21.8423343
  13.7828648  45.7019329  22.0370054 112.1037102  53.5003519  45.1294327
 112.4156570  54.2737627  44.6595812 111.6204357  52.9995918  44.4722319
  18.7199783   6.2423074  28.3141208  18.9695716   7.1638513  28.3826113
  17.9364145   6.1652929  28.8584805  87.6354313  32.2668028  51.7844963
  87.0549202  31.5061975  51.7576742  87.2331905  32.8526044  52.4258041
  21.9081497  48.2401800  84.1480350  21.7374706  48.5537195  83.2598972
  21.3083363  48.7430859  84.6989822  95.0095558  35.7634592  61.7721081
  94.2115593  35.2423811  61.8610096  95.4689312  35.3730679  61.0285997
  29.1658592  32.8762317  57.1353006  29.6718335  32.7271867  57.9340553
  28.5603404  33.5815835  57.3634624  25.8302021  45.0271130  79.3626785
  25.6344438  44.6652508  78.4984064  25.4196405  45.8917809  79.3589067
  98.7669659  39.8191452  91.9347954  99.2783737  40.3045130  91.2874126
  98.9647007  38.8998365  91.7558956  54.3563843  23.4575129  81.1080933
  54.5464230  22.9758358  80.3030491  55.1997328  23.8256073  81.3717175
  83.5621834  36.8679261  58.5824203  84.1420364  37.2517991  59.2401791
  82.9410172  36.3433576  59.0876055  23.2037497  28.7728548  69.5298147
  22.8997016  29.1043973  68.6849070  23.7128305  27.9921770  69.3116188
  93.2450962  39.8895144  76.2371397  93.6951447  40.1382351  77.0444965
  92.8959942  40.7122183  75.8943272  59.6334171  11.4690518  21.7258143
  60.3279686  10.8208930  21.8429375  59.7437286  12.0735872  22.4597073
 110.4319477  26.2477899  52.7598619 109.9075127  25.7746863  53.4059048
 111.2993050  25.8467364  52.8153896  90.5881310   0.0656149  10.5088639
  90.1209164   0.5309617  11.2026870  91.4275360   0.5202723  10.4387498
   7.5208998  26.1410570  87.2037411   7.1586716  25.4498553  86.6494274
   8.1679130  26.5778708  86.6498470 111.7853260  77.7483845   6.4548308
 112.4949360  77.5538731   5.8425868 112.2165775  78.1813812   7.1915615
 102.7221870  45.9943581  66.0816479 102.6874161  45.9076929  67.0342827
 101.8056297  45.9786797  65.8061123  92.6616192  21.8518996  91.6136169
  92.1649647  22.2427034  90.8947086  93.0631733  22.5972176  92.0602608
  73.5477972  57.7992439  90.0122929  73.9248753  57.0727921  90.5085945
  72.8367281  57.4021530  89.5093727  76.4138699  43.6474562  74.7738361
  76.2189627  42.9568338  74.1403627  75.7311106  43.5617828  75.4392195
  27.9296398  76.7077112   2.4643138  27.6533604  77.1501303   1.6617125
  27.1127224  76.5112925   2.9228967  74.1451788  65.0192451  89.5444584
  74.3324471  64.2305040  90.0534248  73.5616350  64.7211266  88.8467216
  77.6374817  17.9608572  83.0549335  77.2089005  18.7728238  82.7842617
  77.0121479  17.2726953  82.8277302  24.2523694  36.9987631  54.4799900
  23.8873911  37.7683067  54.0431547  23.6845589  36.2775159  54.2086506
  87.4814320  29.1027856  66.9094563  87.2089863  28.2712674  67.2975016
  87.0170403  29.7678304  67.4176741   0.0513155  91.6726971   2.2979009
   0.4936487  91.8143749   1.4609438  -0.2381819  90.7609367   2.2644775
  20.5068674   0.0335855  15.5634606  21.1153211   0.5248899  16.1153948
  19.7619142   0.6228227  15.4448104  85.7898998  22.8557444  15.5527818
  86.0382462  23.6362123  15.0573778  86.4302540  22.8088593  16.2626994
  94.8302174  45.1121902  76.9449997  93.9913654  45.1247978  76.4841127
  95.4030800  45.6663322  76.4149284  82.0934963  44.8884439  88.9727211
  82.5080299  44.2952776  89.5992565  82.4403191  44.6189737  88.1222248
   9.7892761  31.8942833  81.0898590   9.6690863  31.2881207  80.3588676
  10.7304811  31.8768001  81.2632370   0.5993254  76.4948273  81.5481186
   0.7698042  77.1491623  80.8706093  -0.1689642  76.0185814  81.2332344
  67.4821186  34.9031401  92.0851612  66.7678547  35.5294037  92.2028542
  67.5643063  34.8091483  91.1361408  12.0100927  70.7490492   1.8564031
  11.2566531  70.1728964   1.7275254  12.7411020  70.2813625   1.4525142
 105.9518242  32.6383328  75.9344721 106.6333103  33.2983494  75.8072281
 106.2137032  32.1738338  76.7293882  98.3408928  60.6222486   4.6098724
  97.4052334  60.8144188   4.5478377  98.7397003  61.1468792   3.9156485
  85.4310894  37.3166823  86.7418003  85.0121689  38.1582332  86.9221497
  86.3001728  37.3924613  87.1357346  71.7792702  98.3357620  49.1010046
  71.1173534  98.2648373  48.4132051  71.5263033  99.1140366  49.5975208
  95.7906246  41.4944458  62.8616619  96.6550732  41.8547535  62.6638222
  95.9685707  40.7383680  63.4210443  96.7225170  48.2949734  84.3484020
  96.0640240  47.6987362  84.7049427  96.3049984  48.6798143  83.5778141
  66.4507294 102.0756054  26.6293955  65.6455278 102.4302483  27.0063686
  66.7343140 102.7402687  26.0016704  37.8965092 102.2346115  57.6939726
  38.6496830 102.2067928  58.2840490  37.7525234 103.1671619  57.5331926
  61.9615984  86.3156700  25.3351116  62.0377493  86.6849136  24.4552875
  61.1274099  85.8463192  25.3265023  95.1489925  55.2532911  73.1192207
  95.0971985  55.8397627  72.3645020  94.9254227  55.8061552  73.8679457
  87.0001602  39.5460820  66.8276072  86.7234325  39.0514302  66.0562611
  87.8104496  39.9779654  66.5571737 108.2383823  81.4688492  15.0159585
 108.5275555  82.0277786  15.7372177 108.1993294  82.0545578  14.2598772
 109.5008755  40.9914732  72.7774525 108.8572121  40.3945351  72.3958826
 109.0588093  41.8402719  72.7961302  55.7971430  35.9064460  90.9500122
  55.7173109  36.7240739  91.4412785  54.9108315  35.5450606  90.9407711
  86.1404896  21.9683957  90.6713676  86.9859791  21.6993451  90.3122139
  85.9080124  21.2712359  91.2846851  79.1897869  52.4884844  79.2123795
  80.1298046  52.5606537  79.3778610  78.9764214  51.5821266  79.4342470
  22.1528554  45.5669451  43.7618160  23.0605412  45.8705521  43.7744331
  21.7848325  45.8776999  44.5889902 107.3539639  29.6706843  88.5555744
 106.5992737  29.4984627  87.9925346 107.4730682  30.6194878  88.5129070
  25.7587981  34.5210505  86.7320538  25.4250741  35.3122640  87.1549511
  25.0422287  33.8905239  86.8041325  72.3080683  42.6533985  74.1632223
  71.3605547  42.5234652  74.2027521  72.6554489  41.8029022  73.8944960
  74.5517111  44.7731543  80.9993744  73.8352633  44.2124510  80.7018089
  74.7607803  44.4498253  81.8757153  79.9573994  68.1723022  75.0908518
  79.8208761  68.3812284  76.0149384  80.8610439  68.4356403  74.9167204
 103.4902287  53.6660576  60.0343561 103.8538361  54.3525600  60.5935860
 104.0380478  52.9005527  60.2079296  30.6974864  38.1481743  33.9969110
  31.3655543  37.7435136  33.4435868  31.1783671  38.7837601  34.5270228
  81.8998432  49.9768972  52.8050518  81.2181473  49.3088627  52.8775072
  82.7193451  49.4966888  52.9236317  46.0890388   2.7992204   9.6966678
  45.9971619   2.8404820   8.7447810  46.0604048   3.7131101   9.9798948
   1.8700728  88.3277798   4.2943877   1.7418157  88.3511162   3.3461064
   1.5795827  87.4534321   4.5539269  99.6573067  53.7399149  70.8567810
  98.9747906  54.4110298  70.8568192  99.7070694  53.4488583  71.7673016
  68.1222582   6.5561020  15.6512785  67.9598331   7.2848332  16.2502789
  67.7151060   5.8013022  16.0764074  90.0926018  62.3606968  81.6027260
  89.7560596  62.1072531  80.7432270  89.8137188  63.2700062  81.7105293
  39.1291261  69.5035934   9.5693976  38.7279177  70.3360748   9.3199241
  38.5506511  69.1522503  10.2462721  68.8753128  24.6634817  41.3572407
  68.0185604  24.8449755  40.9708929  68.9530802  25.2931333  42.0739841
 111.7999268  27.1715093  73.0424881 112.0557022  27.0769787  72.1249533
 111.6011715  28.1026483  73.1410122  16.1967337   9.6252197  70.8168602
  15.9063399  10.5310178  70.7099295  15.4825044   9.1990727  71.2906837
 109.7633553  69.1817713  65.4024792 110.4032516  68.9975166  66.0900927
 109.9112892  70.1003265  65.1775312  84.9923229  51.9923449  46.3454342
  85.4175568  52.3811722  45.5810928  84.0600967  51.9952536  46.1282253
  74.0580416  69.6693611  65.2520466  73.8790655  69.9001503  64.3404913
  73.2631731  69.9196291  65.7229805  85.8568287  63.0965137  91.3754559
  85.1648712  63.0814743  90.7142448  86.3679504  62.3052931  91.2052822
  29.6138215   7.5738740  55.0177765  30.4645729   7.2299212  54.7454739
  29.6972036   7.6981831  55.9632015  10.8073783  89.9284840  22.3939896
  10.7878363  90.0359726  21.4430428  10.1853192  90.5782127  22.7212977
  28.9982128  96.3857174   7.8642267  28.0645442  96.5126991   8.0326635
  29.0277147  95.8339119   7.0826459  26.2281513  78.7603998   4.9015692
  25.3224063  78.6843729   4.6014425  26.6714597  79.2445803   4.2049477
 111.3496685  61.1389303  21.0758042 112.3013687  61.0833311  21.1618662
 111.0271168  60.3185034  21.4487457  41.0315275  89.0547848  19.0057600
  40.3758907  89.1131592  18.3108008  41.6487646  89.7604370  18.8126099
  99.7912312  12.6822138  89.9199486 100.4417992  13.3723116  90.0494099
  98.9844227  13.0413330  90.2891541 110.9573078  45.3519058  74.1261053
 110.2915955  46.0396767  74.1201067 110.8683586  44.9250412  73.2739830
  11.2121665  82.0997047   5.6300569  11.8947315  81.7895603   6.2251604
  11.6704905  82.2676945   4.8066789 103.9435768  13.5831869  83.8361073
 104.3404675  12.7557349  84.1082001 104.4619465  14.2546964  84.2794991
  74.0590096  22.7418494  77.9322910  74.4606638  23.5188293  78.3211470
  74.2131233  22.8374887  76.9924307  22.0107555  95.7096863  46.5479803
  21.6096258  95.3155613  45.7733917  21.8471861  95.0792694  47.2494411
 109.6200180  40.7399845  67.8767920 108.8589191  41.3198996  67.9026365
 110.1274109  40.9759617  68.6533833  32.5940037  79.0127039  21.3202715
  31.9926023  79.6769810  20.9836888  32.9976010  79.4210482  22.0861673
  81.6941929  76.5037441  84.3838215  81.7440224  76.1023092  85.2513504
  80.8954430  76.1433506  83.9986610  88.2312107  28.6906838  12.0328331
  88.1022072  29.3276930  12.7355492  87.3602390  28.5725307  11.6537893
  90.8067894  41.6324806  70.4725218  89.9084187  41.4944696  70.7726955
  91.1612225  42.2895193  71.0716105  18.2765627  31.1240959   2.9393008
  18.0346239  31.1324358   3.8653830  19.1545618  31.5047288   2.9176903
  71.5601254  19.9031341  10.2695978  72.4764633  20.1771855  10.2313888
  71.3655281  19.8476768  11.2051666  18.6720812  61.8733120  80.3657055
  18.2504296  61.4392614  79.6240616  17.9462922  62.1552658  80.9224510
   1.9917254  80.0039959  60.1670694   2.3128501  80.3184128  59.3219376
   1.7513549  79.0913200  60.0074625  16.2627673  93.5744953   3.2533124
  15.7327950  93.7753582   2.4819395  16.5596819  92.6754761   3.1124315
  16.7840099  66.5457058  79.3660498  16.4540672  67.1493959  78.7005186
  16.9999290  65.7492352  78.8810253   3.6873421   6.3089603  79.1191387
   2.8999630   6.2392122  78.5793209   3.4783044   6.9875336  79.7610664
   5.1996422  33.8517594  85.4282379   4.5585141  34.5618439  85.4592991
   4.7817513  33.1748772  84.8958588   5.3511125  85.5943394  83.0336094
   6.0287237  85.0814056  82.5931835   5.7295197  86.4696026  83.1169987
  89.8055267  33.6213160  70.8195591  89.4818974  34.5173335  70.7265520
  90.0655079  33.3674312  69.9340200   4.2328361  54.1480589  72.9393864
   3.7932119  54.7864342  72.3777437   4.8241118  54.6717978  73.4800529
  17.5533020  64.8249435  77.5598907  16.9988608  64.0924644  77.2910023
  18.2579231  64.4191742  78.0649614 105.3990459  83.2628059  13.3327484
 106.2139702  83.7034225  13.5735583 104.7305870  83.6831379  13.8737810
   3.7235913   4.2936307   6.7420560   2.7795547   4.2188114   6.6026694
   3.8796130   3.8430139   7.5720161 110.5582333  71.4431238  89.6597004
 111.2932110  71.9887972  89.9394989 109.7892761  71.8585968  90.0499725
  46.8873882  31.4555144  76.6235495  47.6854563  30.9371328  76.7265177
  47.0116329  32.2047758  77.2061348 102.0377922  75.6924105  86.7690754
 102.5036621  75.2066803  86.0884380 101.7078781  75.0172091  87.3619366
  76.0872030  78.4038496  90.0531101  75.8558607  77.6815128  90.6370068
  76.4260054  77.9767418  89.2663288  46.0464191  37.6978707   3.7399322
  46.9765043  37.6475573   3.9604932  45.5966616  37.6337218   4.5824477
  84.1287899  43.8024664  67.9396152  83.7629890  43.3935165  68.7239456
  84.1761208  43.0925798  67.2992563  95.1194954  60.2102613  53.0143738
  95.0950432  61.0894251  53.3921337  95.0827694  59.6237993  53.7699795
  64.0920496  26.6271520   0.5123797  64.0469646  25.8871818   1.1178900
  64.1220379  26.2248468  -0.3556540 111.3062382  41.0376310  63.3895397
 111.0943317  41.6366577  62.6736546 111.8549061  41.5542746  63.9796877
   9.1554028  51.8188095  63.9976406   9.4228733  51.3433361  63.2111216
   9.4419485  52.7188349  63.8424826 101.8598175  73.6935377  57.9208946
 101.6046143  73.0360222  58.5680199 101.3445950  74.4671822  58.1494951
  76.1620378  42.9754972  82.5022697  76.3526058  43.4389114  83.3178425
  77.0185995  42.6937008  82.1811295  38.3416200   9.1750067  70.6213570
  39.1177368   8.9510089  70.1078415  37.9326010   9.8920715  70.1368427
  32.8888011  95.3014851  13.8206363  33.4371901  96.0733795  13.9609349
  32.2518539  95.5768299  13.1613064  85.5820370  59.4987106  49.6720648
  85.4935455  58.5678339  49.8766899  86.3625145  59.7762346  50.1517248
  84.5608330  58.6652184  90.2437305  85.1164341  59.0758944  90.9062099
  85.0054169  58.8426495  89.4148159   4.6985140  50.3170872  56.9236851
   3.9816612  49.7922468  57.2799063   5.2852309  49.6780252  56.5192175
 112.5517845  83.7743282  84.7691727 112.6989365  84.6432400  84.3955612
 111.7502594  83.4648228  84.3472862  83.2514381   4.3038645  27.4884558
  83.3750343   3.8258216  26.6684365  82.5129032   3.8662204  27.9118490
  82.3073006  62.1379471  74.8512173  82.9855537  61.4680147  74.7652388
  81.5665531  61.7943144  74.3517780 110.0558186  54.4869471  86.5635490
 110.4443073  54.3263769  87.4235058 110.5299377  55.2462435  86.2245464
  12.5468457  56.1159182  67.6422405  12.9276371  55.7144070  66.8612003
  13.2976282  56.3023281  68.2059860  23.5539317 100.3361797   3.3396655
  23.0027366 100.2504158   2.5618094  24.4323444 100.4955578   2.9943776
   8.8165170  89.0631390  29.8908520   8.5230917  88.2639408  30.3283501
   9.4937700  88.7681293  29.2821407  94.0999222  62.2996712  59.8276138
  93.4770489  62.0104837  60.4944229  93.5887432  62.3286486  59.0188599
  18.7426531  78.8154030  20.2598667  19.5530438  78.3653021  20.0213122
  18.8826609  79.7218943  19.9861848 104.2188644  55.0024176  80.5255699
 104.1218948  54.3097878  79.8720407 104.6527672  54.5756006  81.2643433
  57.9555798   7.2374886  31.7675638  58.2628489   7.8821743  31.1302257
  58.2663727   6.3981855  31.4281344 105.2850151  49.3693066  90.2183628
 104.5977306  49.9619198  90.5227852 106.0969925  49.7554636  90.5467224
  56.9868660   8.3367515  23.5077190  57.6728106   8.4876508  22.8573775
  56.7494249   7.4161988  23.3962035 100.0358582  52.0874023  85.1975918
  99.9146652  52.4998474  86.0528374  99.6309853  52.6953506  84.5789623
   5.8563817  65.7979107  82.5625038   5.7610023  65.5850267  83.4908485
   4.9604633  65.8072758  82.2256470  73.6776352  34.3743086  22.2218108
  73.3090925  34.4753909  21.3442063  74.4253349  33.7888718  22.1016240
   2.8379920  64.2517662  67.6749468   2.9499686  64.4091892  68.6124516
   2.2006473  64.9092484  67.3961258  17.4890494  20.3148890  80.2235603
  17.7904320  20.7009768  79.4011641  17.8854156  20.8598065  80.9034061
  48.2683277  25.5678844   4.5807499  48.0403328  26.4234185   4.2170054
  49.0869188  25.3324032   4.1440776  93.2020473  25.7370758  90.0891495
  92.6856518  24.9364901  89.9962521  94.0847683  25.4855824  89.8175335
  17.4397671  73.3998632   6.2915355  16.6046464  73.8407993   6.4476717
  17.5121450  73.3545971   5.3381503  25.1485276  97.3026180  20.4061294
  25.7785082  96.7479897  20.8662891  25.6873441  97.9459000  19.9455881
 106.1102962  86.9706631  82.2616386 106.4303875  87.3838997  83.0635166
 105.1915646  86.7735004  82.4440765   8.5910106  75.8151150  71.7698717
   9.2886138  76.4618397  71.6634321   8.9152223  75.0364304  71.3173628
 112.1324444  54.8988295  73.3674145 111.6045475  55.1668215  74.1195726
 112.8651905  54.4154835  73.7490988  76.9980288  63.9244366  59.3209362
  77.2132254  63.3323145  60.0415659  76.7380047  64.7395229  59.7501850
  22.9012156  64.2690277  55.9485149  22.3365116  63.5858679  56.3099432
  22.6390696  64.3355322  55.0303173  16.6496301  57.7040815  77.5790453
  16.1370134  57.4109221  78.3323812  16.2018394  57.3252630  76.8226004
  85.4831600   4.5043063  18.2067990  86.3679028   4.8249108  18.0316770
  85.1222038   4.3125251  17.3412549  94.1450500  33.3534861  72.1447086
  94.9991894  33.3275580  71.7134380  94.3474865  33.3158922  73.0795002
  91.3446140  38.3416080  78.5561037  91.2540436  37.5972342  77.9611778
  90.7783031  39.0169501  78.1826878  24.8084044  64.7901487  38.8014722
  24.2331409  65.0433636  38.0795383  24.9188280  65.5920744  39.3123126
  83.7117863  44.1396570  60.8518505  84.4646549  43.8637018  61.3746023
  83.0396748  44.3590736  61.4971018  70.9057093   3.6590779   2.4752763
  71.4015627   4.0941682   3.1688592  70.9898806   2.7256963   2.6700744
  19.4286525  85.7893753  79.0644503  19.8468435  86.2541008  79.7892809
  19.9299288  84.9784279  78.9788818  96.2442207  65.4430962  62.5103617
  95.8082485  66.2924194  62.5796652  95.8939934  64.9337482  63.2412100
  17.7686310 102.9508209   5.1696932  17.8867662 102.1385574   5.6621444
  17.2646856 103.5152245   5.7559723  13.6611354  33.1884098  46.2359619
  13.5941005  33.2164907  47.1903944  13.3323598  34.0398765  45.9476137
  12.8723121  90.6530476  57.0962429  13.0562675  91.5902519  57.1597385
  13.5158896  90.3246403  56.4684010  38.7207079  83.6426163   1.2728730
  39.4575310  84.1198254   0.8913115  38.8582420  82.7344608   1.0034841
  74.6371937   0.1510878  11.7333210  75.0108814  -0.4692436  11.1073983
  75.3787661   0.4205799  12.2752416  53.5001945   4.1403559  21.3664985
  54.0595627   4.7570199  20.8942080  53.6822891   3.2927078  20.9608340
 100.5387965  18.4659831   0.9189686 100.7783284  18.6511867   0.0109181
  99.6513071  18.8133065   1.0081753  78.8639450  67.6436377  79.3881083
  78.7851667  68.1673336  78.5907602  78.9345503  66.7414713  79.0761232
 102.7433491  24.5570421  -0.2730289 103.0161572  24.8126769   0.6081376
 101.7872238  24.5950055  -0.2481995  71.3480091  80.0484657  79.2058277
  70.9246063  79.8345852  80.0372219  71.9606256  80.7511997  79.4228458
  11.1078799 102.4416447  17.1434152  11.4160335 103.2956982  16.8403292
  11.6671634 102.2373772  17.8928888  42.8500986  87.7467346   8.5595167
  42.4921894  87.4700546   7.7159631  42.3426008  87.2575092   9.2070806
  92.4753475  30.5016565  49.8106718  92.0720387  29.8786640  49.2061520
  92.2758770  31.3604522  49.4379616  23.3970308  68.0296993  87.2521782
  22.8612208  67.6630068  86.5488529  22.9105282  68.7993288  87.5475121
  80.8039665  58.5702467  71.6721487  80.1151371  58.7589741  72.3094320
  81.1518764  59.4295835  71.4339638  28.1183410  91.7405605  72.8553343
  27.9925084  92.3608017  72.1372080  27.9677463  92.2570419  73.6470413
 104.3068409  55.3675795  58.1059313 103.9675522  55.1363039  57.2412729
 104.1310596  54.5971727  58.6461210  18.4326220  95.6946182   3.8464096
  17.8997874  94.9334621   3.6162704  17.8203619  96.2964344   4.2697066
 111.5183830  67.0503902  21.5386534 111.0071087  67.4039936  20.8107829
 112.2749710  67.6329565  21.6051888  76.5674639  20.6979156  46.4974976
  75.6364584  20.5175018  46.3674641  76.5860224  21.4212465  47.1241379
  63.4659910  23.7206197  35.3510761  63.3225727  22.7945614  35.5462193
  62.6144457  24.1315103  35.5003071  79.0043831  81.3201427  84.6602249
  79.0393829  81.2730789  83.7048244  78.2196712  81.8358326  84.8460388
  47.3253012  99.6166229  70.2897882  46.6102171 100.1760578  69.9866056
  47.9097605 100.2097321  70.7618713 104.1074467  60.8873224  86.6850567
 104.3801785  61.3668585  87.4672985 103.3918571  60.3268242  86.9850731
   0.9567930  32.7207398  88.7561893   0.8224218  32.6720858  87.8097153
   0.1529212  32.3608685  89.1310406  27.2126317  79.6886253  89.6725178
  27.1645927  78.8825750  89.1585064  27.4978733  79.4026566  90.5403233
  31.1479878  99.3238640  16.7822802  31.3758469  98.8713741  17.5944149
  30.4299259  98.8087654  16.4144576  99.1226292  61.9681454  81.2460804
  99.3407249  61.7838049  82.1596909  99.6547604  61.3512087  80.7436275
  97.9238701  96.6288090  13.7219453  97.7121449  96.4905739  12.7987468
  98.3484936  97.4863720  13.7444854 102.0452690  30.1764703  81.9688129
 101.2001419  30.4774737  82.3025513 102.6904106  30.7037759  82.4399567
 101.2782574  43.0408478  25.3861809 102.2184753  43.1898165  25.2860379
 101.2019157  42.1034956  25.5644345 102.7038193  70.9032440  77.3592043
 103.1537724  70.9231949  76.5145874 102.8773308  71.7626238  77.7433777
  82.2855091  53.2634449  77.0739460  82.9615593  52.6786137  77.4162197
  82.1773529  53.9283991  77.7539253  33.2474566  89.6402359   1.5632571
  32.7689815  89.9700451   0.8026540  34.1115189  89.4104290   1.2214699
  39.2343879  10.1714492  38.3872652  39.0938139  10.8716500  39.0245938
  38.3676863  10.0089633  38.0148935  95.5869770  87.0752716  59.7578335
  94.8017216  87.6198959  59.7032499  95.5985546  86.7616367  60.6621170
  87.9393959  70.5254078  78.4377670  88.4910488  70.5227518  77.6555204
  87.3312283  71.2515259  78.2994986  88.6988926  63.9147186  56.2424040
  89.2737484  64.6794176  56.2104845  87.9336739  64.2107344  56.7354012
 106.9370937  37.1736813  80.3075218 106.6250229  37.1610260  81.2123299
 107.7835274  37.6184011  80.3522968   4.4773376  93.8516998  16.1144304
   4.4604781  93.4678936  15.2377117   3.6714101  93.5414124  16.5272665
   4.7909850  57.7261162  91.5052128   5.2630019  58.2445335  92.1568871
   3.9600894  58.1868505  91.3887215 109.8243523  40.4997253  75.6042385
 109.2398262  41.2533474  75.6855440 109.9056816  40.3603888  74.6607304
   2.6142758  57.6274014  73.9550304   1.7547226  58.0480003  73.9327908
   3.2230398  58.3372164  74.1594696  69.2915392  41.6838312   0.6982409
  68.9397287  41.5677309   1.5808398  70.1538897  42.0765018   0.8338778
  24.1793489 105.4977131   4.7034073  23.3773875 105.6555939   4.2052472
  24.0627003 104.6229744   5.0741732  38.9340162   3.6233971  88.5940647
  39.0544128   4.1262281  89.3996048  38.7356758   2.7359819  88.8930416
  79.6591139  31.9728684   4.0483603  80.0648403  32.6904321   4.5348954
  79.9677324  32.0882273   3.1496507  35.7559800 104.3494797  24.2837548
  35.2014232 104.7875023  24.9293804  36.1669588 103.6331272  24.7676730
  18.6551309  76.9966555  12.0938981  19.5687127  77.2633076  11.9914579
  18.2276213  77.2928619  11.2903273  64.3278980  18.8198006  27.2494531
  63.8356018  19.6226192  27.0781112  65.2047443  18.9995241  26.9102287
  63.5430574  22.3331022   0.8201439  64.3770123  22.7912378   0.7159098
  62.9296541  23.0128026   1.0993797 105.9565926  72.9057217  85.8625317
 106.2704372  73.4391737  86.5927124 106.2156105  72.0126629  86.0896587
  91.1733437  31.1412525  84.8615646  91.0891342  31.0167456  83.9162445
  90.3333664  30.8510089  85.2171421  87.4718094  41.6216278  59.3318272
  87.6404095  42.5439358  59.1390610  87.7824497  41.5038919  60.2295351
  75.5957365  38.6867309   9.0804315  76.1870480  39.4393158   9.0663952
  75.2653360  38.6584473   9.9783552  79.6956778  47.1997404  80.4461288
  78.9404249  47.7868605  80.4794884  80.1091385  47.3889828  79.6038246
  45.8324957  55.6793642   3.6746904  46.4696741  55.0410604   3.9953154
  45.8272076  56.3674784   4.3400526  21.3945508  57.8798437  87.3628616
  21.0453248  58.6665344  87.7816582  20.7060909  57.6052380  86.7571831
  79.9021530  62.0988274  83.2897758  79.7513199  62.7426195  83.9818859
  79.0650892  61.6433477  83.1997871  21.3977885  56.8639851  18.0391347
  22.2185779  57.2311401  18.3673632  21.0661387  56.3334036  18.7635112
 104.4357872  62.0760441  65.5782938 103.9931679  62.1494150  64.7327566
 105.3337955  62.3577404  65.4037952   3.8364694  58.5117054  56.1708784
   4.7361985  58.2103205  56.2969160   3.2977623  57.8370619  56.5842533
 100.6598186  29.8833299  85.7035446  99.8074245  30.0678492  86.0980129
 100.4689884  29.7414899  84.7763443  77.0400715  10.4233539   0.4871739
  76.0944271  10.2802670   0.4482838  77.1880627  11.1958301  -0.0583640
  81.0653400  43.9005947  14.7435808  81.5331173  44.6517134  14.3785608
  81.7214680  43.2046223  14.7803664  32.2084022  92.9287243  18.5606885
  31.6844773  92.5654984  19.2746878  31.5959978  93.4752655  18.0682552
  64.9369669  36.0432315  12.7990651  65.5808258  35.7348943  12.1614099
  65.1104689  35.5245304  13.5846078  36.4550281  84.2440033   9.4998193
  35.5538154  84.5578957   9.4255060  36.6199708  83.7913609   8.6726898
  87.6337528  57.9640293  81.2854004  87.6728916  58.6299658  80.5989361
  88.3238792  58.2129574  81.9002056 110.4043102  48.6132383  71.8163729
 110.5924702  48.9190531  72.7036715 110.8922195  49.2099762  71.2488556
  64.9924231  11.9894004  25.6147552  64.1216373  11.6138995  25.4845309
  65.4338980  11.3733959  26.1994529  25.5260444 100.3165722  -0.1400936
  25.4110599 100.1703262   0.7988536  26.4524317 100.5373955  -0.2364187
  35.0228858  71.1197233   1.4352722  35.3646755  70.4992819   2.0790598
  34.1039610  71.2343454   1.6774896 106.1488724  81.8119621  90.1899529
 105.3954029  81.3321972  90.5339622 106.3632202  82.4447155  90.8754635
   3.4608617  52.7199936  54.7788048   2.9165480  51.9522238  54.6042013
   2.9282582  53.2643175  55.3587008 109.4668674  54.7439003  54.4432163
 110.4159927  54.8531580  54.5020199 109.2357731  54.2349052  55.2202320
  77.0502281   7.4197376  16.2845182  76.2475443   7.6557571  15.8195174
  77.6177263   8.1842411  16.1859727   7.9715842  80.0321770  58.9830399
   8.4703398  79.8626900  59.7822571   8.6355323  80.2428818  58.3265257
  98.0297470  64.5455933  65.0523520  98.5809994  64.0771961  65.6792116
  97.5038338  63.8615370  64.6379757  92.3927689  88.8529015  63.3004904
  92.3490334  89.7186089  63.7065458  93.0527878  88.3825397  63.8097715
  18.8371944 103.3962440   2.7063060  18.7719071 104.3307686   2.5097471
  18.6153793 103.3307934   3.6351466  68.8054657  56.0364103  84.3357277
  68.1361818  56.1933899  85.0018024  68.3113098  55.8010864  83.5504532
  62.2021103  95.4061604  74.6843386  62.3970079  95.9090805  75.4751110
  62.8129530  95.7436752  74.0292120  95.8447742  28.6845517  73.0251980
  95.7855797  27.8366113  72.5850534  95.4605484  29.3038535  72.4046612
  89.6714973  20.7697845  48.3780813  89.7518158  21.5370011  47.8113747
  90.4715347  20.7753539  48.9035654  29.7204487 106.0338092  20.9907389
  29.9444620 105.1220844  20.8041668  30.3434985 106.5441978  20.4734921
  18.2392251  88.5203075   2.5961623  18.0244398  88.3132458   3.5056812
  18.6953235  87.7425575   2.2747391   8.4345001  27.8413582   6.1434084
   8.1193870  26.9850087   6.4325500   7.6384115  28.3502460   5.9900826
  97.1478367  72.7289295  74.5611763  98.0219460  72.4937439  74.2499685
  97.0249367  73.6324072  74.2698765  30.2516675  37.9674768  80.5277538
  30.1590037  37.0202875  80.6301308  29.3711019  38.3117986  80.6770134
  68.9652300  88.5302639  72.3972368  68.2887125  89.1618252  72.1529293
  69.5642424  88.5201168  71.6507006  91.0694408   6.2573224   4.8882920
  91.3863373   5.4905605   4.4109228  91.7669010   6.4555460   5.5131745
 111.0901546  39.8289514  45.7998657 111.9819069  39.9988890  45.4963255
 110.6891060  39.3226004  45.0934601  19.6133709  91.7263699   1.9133787
  19.0516102  92.4061775   2.2855558  20.4853106  91.9217682   2.2565551
   1.1151999  75.8348608  49.3261814   1.7568490  75.3575325  49.8521805
   0.3951447  76.0136890  49.9309731 108.6820698 102.2650909  42.6119518
 108.2499504 101.8683815  43.3683395 108.8443947 101.5326595  42.0174456
  85.2569103  59.5041943  46.9439793  86.0225677  59.0222073  46.6314220
  85.4285240  59.6490717  47.8744555  73.0649614  33.0471969   0.7135126
  73.1153774  32.1938276   1.1441572  72.3100853  32.9764032   0.1292354
  19.3331873   0.7400248  64.7677422  18.5779083   0.5250201  64.2204237
  20.0911784   0.5557630  64.2130089  84.1005993  94.0806198  91.3085175
  84.2595959  94.5396614  92.1332836  84.5489407  93.2411861  91.4113235
  16.5294290  94.7174072   8.2467562  17.1811819  94.0339470   8.0907899
  16.9302976  95.2848625   8.9051884  52.5888824  16.0272861  27.6257730
  52.9312229  15.2926600  28.1350446  51.9459009  16.4396369  28.2026362
  97.3620796  56.5472269  82.7547073  96.5413857  56.5165663  82.2630215
  97.7545452  55.6846905  82.6196861  94.9482059  36.7530465  81.1283398
  95.0849438  37.2182608  81.9536400  93.9994144  36.7630076  81.0021400
  81.4074326  70.9192944  60.2444172  80.4577160  70.8215237  60.3131485
  81.6656399  71.3345051  61.0673141  85.5064487  24.3883967  56.6480970
  84.8338127  24.8424387  57.1556854  85.3898907  23.4642649  56.8686104
   2.7178705 104.3954659   7.1431941   2.4125689 103.9969063   6.3282275
   3.1975955 103.6960030   7.5868690   3.7497032  64.1513872  12.2117996
   3.4548929  65.0281286  12.4580443   4.6468768  64.2782402  11.9032240
  23.6077332  83.2645226   6.5553939  23.6481857  82.3122883   6.6440362
  24.4664311  83.5690784   6.8488407  67.0794344  55.5625010  88.6874676
  67.4866247  55.9714222  89.4511414  66.1994934  55.9378815  88.6554337
  38.0752349  55.3719759  29.2160845  37.6617813  54.7619534  29.8269558
  38.1070685  56.2022066  29.6914077  19.3370676  64.9213314  13.8586736
  18.4652698  65.3158474  13.8351059  19.2004788  64.0622473  14.2581093
  96.1464310   9.0800607   4.2686531  95.7659817   9.7397476   4.8485705
  95.6841183   8.2715845   4.4897109   8.4702981  93.9072418  13.7446737
   8.5096776  94.5363140  13.0242860   8.2100821  94.4286823  14.5040298
 104.2494202  41.6503859  10.8087814 103.3936119  41.2291670  10.8887076
 104.3795300  41.7514038   9.8658597  94.6323204  81.8684387  86.5958691
  94.0955830  82.0673466  87.3630619  94.3037224  81.0245132  86.2859535
  25.3781080  45.8159828  67.7221298  25.0878310  44.9081326  67.6338863
  25.0579286  46.2478685  66.9301748  82.3533630  95.1083755   9.8054743
  82.9509354  95.3807449  10.5018556  82.9056931  95.0475597   9.0260768
  99.9249649  56.3757610  73.7109327  99.1686821  55.7917166  73.7671328
  99.8829556  56.8996906  74.5109081   0.2250971  64.5014954  81.0679722
   1.0814265  64.0744305  81.0913944  -0.0428736  64.4506788  80.1504517
   5.6684726  86.2380219  48.1933689   6.4681566  86.4597511  47.7163219
   5.9694123  85.7105350  48.9332485  69.1451836  45.4322338  86.1892796
  69.5145893  46.3094711  86.0881805  69.7213602  44.8687410  85.6728172
  53.4980679  13.9735496  14.1697061  52.9537582  14.3590760  13.4831703
  53.7094688  14.7066557  14.7477174  16.9204140  90.8600998  63.5642624
  16.0308433  90.8284664  63.9162493  17.0687079  89.9837494  63.2089615
  56.6284561 105.0899601   2.7363041  56.4641190 104.4207859   3.4007117
  56.0680103 104.8406029   2.0014858  20.9228420  36.1536050  75.3486204
  21.3170910  35.7542396  74.5731783  20.6740141  35.4116845  75.8998632
  11.5198720  96.3639069  66.9663811  10.8894491  96.2264252  67.6734114
  11.1348391  95.9178162  66.2120676  28.4762764  91.0856438  12.7754498
  28.4743190  91.5323067  11.9288564  28.6118555  90.1630974  12.5592041
   6.5283555  95.1898766  84.8478699   6.2038052  95.6036758  85.6476688
   7.0264155  95.8783054  84.4071579  13.8358092  75.1537275  83.5289288
  14.6130550  74.6980238  83.8521194  13.7581372  74.8768425  82.6159477
  42.4189949  67.3000669   4.5628020  42.1906233  68.1213140   4.1273323
  41.8603802  67.2775555   5.3397644   9.0222955 102.0810795  10.3249288
   9.3488044 101.4678764  10.9834146   9.2181849 102.9460239  10.6851006
  91.9321632   9.2927736   1.8888114  91.6721439   8.3768708   1.9875309
  91.9204140   9.6424520   2.7797768  30.9261584  41.5985870   4.0168437
  30.8776212  41.2862921   3.1133232  30.0163388  41.6149139   4.3138176
   6.1604869  58.3521175  53.8070107   6.9750428  57.9858923  53.4626198
   6.2831324  58.3582163  54.7563028 108.0364132  79.4621992  80.0065422
 107.8638077  79.1344309  79.1239357 107.2075939  79.8529863  80.2832699
 103.0412674  19.0352631   5.0254512 102.9438114  18.5887921   4.1843817
 102.9417706  19.9640691   4.8165169  11.2204325  89.0123272  67.6925898
  11.8150079  88.3899879  68.1114006  11.1088777  89.7092628  68.3391714
 110.0782394  37.3634124   8.0878448 109.9339676  37.2318196   7.1507746
 110.9463120  37.7629972   8.1427377  58.5816860  37.1171498   2.3604086
  57.8375959  37.2273660   1.7684500  58.6053228  37.9277658   2.8689137
  88.3372784 103.9041710  70.4365826  88.2157707 104.3753529  69.6122932
  87.8979397 104.4480324  71.0903645  85.9745026  42.5802660   8.0028391
  86.2666035  43.0066204   7.1971548  86.0925007  41.6452456   7.8353804
 105.2927589  79.4710588  87.9794025 105.7600212  80.0048828  88.6219978
 104.9673080  78.7232590  88.4805012  31.7064953  56.6513968  56.2235641
  31.5126038  55.7657433  55.9165525  31.1355591  56.7722368  56.9822884
   7.3605716  68.7477207  87.7970505   6.4039963  68.7792253  87.8112793
   7.5976795  69.0638113  86.9252110 104.6851826  52.2053480  73.5344028
 105.1066971  51.3616848  73.6980772 103.7516499  52.0350218  73.6599112
  37.4521661  89.6305084   6.4884526  36.9028521  90.2044964   7.0223230
  37.1791577  89.8071671   5.5881804   0.8788592  78.7908888  79.6940994
   0.1098029  79.2060614  79.3036938   1.0880630  79.3380642  80.4511070
   4.9648330  66.2111139  48.6845541   5.2222967  65.4213381  48.2089567
   5.5127323  66.2073660  49.4694281  80.9337521  84.8979092  69.7763920
  81.8687725  84.7825146  69.9456739  80.8676910  84.9506474  68.8229322
  17.9986560  73.2593298  83.2264709  17.8377759  74.0174007  83.7883282
  18.7960124  72.8645229  83.5794353   3.5154334  71.8684340  73.4637260
   4.2862040  72.0688963  72.9327297   3.8186878  71.9531584  74.3676567
  70.8804750   8.2198077  25.1101542  71.7454386   7.8104907  25.1331544
  70.6037807   8.2466757  26.0260963  14.5329773  62.5056696  56.3259172
  14.7915626  61.6409302  56.0071754  13.7081134  62.6897717  55.8765411
 108.6492348  51.9103813  38.9275169 108.8337612  52.8181362  38.6863518
 107.8713989  51.9634771  39.4828463  15.6809163  65.8994007  58.7406445
  15.7897544  66.2386513  57.8522205  15.0578666  65.1787710  58.6471939
 108.3152866  83.9447689  50.7654619 109.0828323  83.4985161  50.4077530
 108.6616516  84.4849205  51.4757395   3.6604384  49.6051311  88.3064175
   3.5817319  48.6913013  88.5801888   3.6799893  49.5678377  87.3501492
   4.8591205  73.2281685  68.9554501   4.4669297  72.7589083  69.6918011
   5.1170313  74.0744734  69.3207979  90.5125141  45.0782490  51.3934803
  90.9902573  45.3929424  50.6260443  91.1764812  45.0163460  52.0801687
  73.0370998   6.8575203  10.3460908  72.6614285   7.7275193  10.4810119
  73.7803078   6.8215448  10.9482348  86.3001442  47.7682829  83.6401749
  86.1200428  48.4871101  84.2460442  87.2496986  47.7877140  83.5209846
  46.0147905 105.9111214   8.0610716  46.7172766 105.9492493   7.4120003
  45.2829218 106.3703918   7.6491642  89.6341801  57.9039001  67.2779846
  89.2082310  58.4091139  66.5854836  90.2962589  57.3839140  66.8224573
   8.7866318  71.7939329  88.3189678   8.0055457  72.3102045  88.1199646
   8.7436050  71.0521603  87.7155113  23.0095148  56.5593815  47.6596212
  22.9644990  55.6645489  47.9964972  22.5136137  56.5324688  46.8413353
  65.6955671   0.9259126  25.6518888  66.2896919   1.2675500  24.9836564
  65.5066347   0.0310455  25.3694892  13.4385169  54.7350883  55.9560394
  12.9712927  53.9106083  56.0908318  12.7742219  55.3338051  55.6147480
  66.3353872  70.1583195  11.2064862  65.5526829  70.5319977  11.6114223
  66.0120630  69.7213411  10.4186141  25.7027268   3.7442431  85.5476189
  25.4188991   2.8374043  85.4322147  24.9120045   4.2632523  85.4005814
  61.4838266  57.0600986   9.4435686  61.9317532  56.2205076   9.3402231
  61.4961004  57.4474430   8.5683274 108.2117271  80.9436131  82.7946377
 108.7811756  80.2558327  82.4497890 107.3251534  80.6430340  82.5949574
  53.4398317   5.6916451   6.6329002  54.3054199   5.6292045   6.2290561
  52.9202509   5.0202441   6.1907560  79.5119762  54.9273872  81.2443161
  80.0006962  54.2193508  81.6639233  80.0316048  55.7124138  81.4173698
  30.0194550  66.6700745  89.6952057  30.5534220  67.4594164  89.7849369
  30.2105665  66.3506031  88.8133621 103.4426689  35.6877732  70.4113388
 102.6374149  35.8883715  70.8883667 103.2025528  35.7747221  69.4888353
  49.9872923   7.0823181  13.5001779  50.2675390   6.4494824  12.8389573
  50.6912184   7.0786107  14.1487944  80.4802227  84.7738838  85.9053612
  80.0381565  85.2064133  85.1747990  81.1422348  84.2204857  85.4909515
  25.2667165  40.7597876  73.0186415  25.8256340  40.0980139  73.4259462
  25.8668518  41.2909412  72.4952412  91.2981987  57.3912477  21.0384512
  91.0408974  58.2051039  21.4716554  91.3561916  57.6214695  20.1111627
  31.3933873  45.0564146  61.7549229  30.7563448  45.7096815  61.4657068
  31.3821864  45.1174259  62.7101135  24.5684123  70.4841137  84.8664761
  24.8391843  70.2012205  85.7399082  24.8571777  69.7796583  84.2863178
  19.0173924  46.4955854  89.2306423  18.2323909  46.4942551  88.6829185
  19.7426116  46.4242697  88.6099911  60.0734901  54.7000265  20.9794450
  59.7451687  55.0474834  21.8087268  61.0109663  54.8928404  20.9933567
  86.4047718  71.1811113  53.2540035  86.1782455  72.0149136  52.8420591
  85.7612610  70.5614805  52.9102230  29.1658545  98.2043552  60.0093031
  28.2334495  97.9884720  60.0251150  29.5509243  97.6530933  60.6905270
  84.9930954   6.9160509   4.0203723  85.3311253   6.1503792   4.4848230
  85.1615715   7.6490253   4.6124825  75.0001588 106.2505950  88.2415962
  75.3853161 105.4022383  88.4610844  74.8450721 106.2063148  87.2980785
  41.4006186   5.5141139  69.0574932  41.7171907   4.8056972  69.6179914
  40.6121969   5.1599616  68.6461592  41.9950485  40.5214691   4.1021901
  41.2466431  40.9919310   4.4693175  42.5960302  41.2107801   3.8195184
  64.5349312  91.7109585  82.7256870  63.7942982  91.7999840  83.3254910
  64.8176861  90.8021641  82.8274727  98.0751801  49.7379160  77.7929783
  99.0184212  49.8677301  77.6946354  97.7778435  49.4729519  76.9225645
  41.6634178 105.3370476  11.0471880  41.8915510 104.8049164  10.2849376
  41.8001318 106.2395000  10.7588685  78.0764771  17.6861501  15.0375926
  77.3339510  18.2874870  14.9802983  78.0955791  17.2474468  14.1870594
  13.9196634  80.1072025  65.7515955  13.6965382  80.6500435  66.5077496
  14.3498695  79.3388987  66.1269093   5.9960473  50.8955288  73.7494993
   5.4008555  50.3886175  73.1972122   6.0799444  51.7372942  73.3015966
  14.6804929  64.3415928  87.4028587  13.8485229  64.6454382  87.0399094
  14.9948764  65.0766563  87.9292393 100.4751015  90.4171944  63.5252190
 100.3033066  89.5459461  63.8824892 100.5088329  90.9883595  64.2925978
   3.5383788 102.2110748  55.8768177   3.4008837 103.1583023  55.8672619
   2.9030988 101.8704700  55.2470255  64.2262888  39.5900559  30.0950623
  63.4857512  39.1032171  29.7333622  64.7890854  38.9185381  30.4804921
 104.4717121  71.3605881  65.0605488 103.8862133  70.8772182  65.6434536
 104.2663193  72.2810555  65.2242327  61.0106421  27.7829051   1.0291139
  61.8108082  27.3494959   0.7322565  60.4753542  27.0762897   1.3902201
 102.8710365  79.2676258  77.2214508 102.3057461  78.8452578  76.5746975
 102.3942280  80.0573063  77.4769831   1.0314930  83.9606476  29.6629071
   1.4390358  84.4262791  30.3931999   1.7005801  83.3419323  29.3700790
  54.1117573   1.9236434  42.5424004  53.2477093   2.2928026  42.7251005
  54.2598677   1.2982237  43.2517290  58.4562349  27.2157741  73.6897993
  57.9788113  27.9084682  74.1463852  58.6951923  27.6042151  72.8482294
  54.3505001 103.4555721  58.6196423  55.0619364 103.7502193  59.1882086
  54.2546082 104.1554451  57.9737139  55.2793694  16.3932145  52.9206562
  54.5391846  16.9781613  52.7588272  55.8446932  16.8820894  53.5186911
  17.4383175 101.2390137  65.8034277  17.1306634 100.3364658  65.7198143
  16.7341602 101.6898918  66.2693691 102.8225899  19.1600621  73.2407427
 101.9874763  19.3178725  73.6811113 103.3332443  19.9529576  73.4043837
  59.4680262  73.1741285  81.8873119  59.6737766  72.9206038  82.7871037
  58.6095715  72.7854681  81.7193127  63.3261728  25.8806872  82.7383232
  63.9987326  26.4442706  83.1207752  63.6554670  24.9916029  82.8699493
   0.4858992   5.9316212  34.9536395   1.4100686   6.1063325  35.1314545
   0.1695188   5.4905373  35.7420421  93.2683182  27.9927468  76.5801287
  92.7584076  27.6834202  75.8314371  92.6914215  28.6159444  77.0217705
  96.5470982  15.2132905  24.8114181  97.4313831  15.0692332  24.4744873
  95.9811592  14.7204304  24.2172551  75.7913828  23.4098005  56.9091511
  75.5116844  23.7148094  56.0460329  76.0743952  22.5069880  56.7640209
  40.7577038  99.5047569  64.0602016  40.9124804 100.0727081  63.3054161
  39.8056769  99.4138050  64.1002846  76.1667728  27.6255727  83.4294510
  76.9235563  28.1571794  83.6762524  75.4163933  28.0909967  83.7989616
  98.8256931   2.6174650  53.2923365  98.0483055   2.2365063  53.7007093
  99.5232773   2.4835800  53.9339638  62.2514105   9.9442554  47.0806646
  62.7260351  10.7162845  47.3887777  61.3348675  10.1288831  47.2858334
  76.7117834  27.0707774  55.5567074  77.1242523  26.4303374  54.9771070
  77.2759247  27.8420901  55.5014420  71.5867853   4.5201594  57.5357199
  70.9229517   4.8895571  58.1180525  71.2505198   3.6532146  57.3086405
  55.0554657  14.5324492  70.1205826  54.8107529  15.4129732  70.4052305
  55.9838867  14.6019804  69.8982525  96.1659908  20.8240008  19.0023685
  96.0803223  20.1440954  19.6706653  95.2695370  21.1213970  18.8469601
  45.9287691  61.0988283   4.7240809  45.6437731  60.2322292   5.0139451
  45.1465321  61.6454744   4.7983590  43.0027151  94.4644260  80.8230209
  43.8966417  94.7693157  80.9784889  43.0419493  93.5201263  80.9746742
  35.5250478  90.7836151  51.4678335  36.0192490  90.1916504  50.9007645
  34.8219085  90.2414036  51.8253660  75.2522039  16.6428947  60.9450102
  75.6935787  16.2467635  61.6963434  75.2714968  17.5829780  61.1241865
  26.6087461  99.9650383  91.2543201  27.2972679 100.0054836  91.9180489
  26.5510130  99.0374374  91.0253239  72.0972204   9.0369880  11.2896752
  71.3936138   9.0330374  11.9386363  72.2328091   9.9630517  11.0890412
  55.4160452  75.7007170  73.8911295  55.4515553  75.1584911  73.1031179
  55.9256792  75.2147198  74.5394421  83.6735153  13.1014228  77.4053764
  83.6329079  12.2442961  76.9812059  83.2061291  12.9819107  78.2321167
  89.2523479  18.9380479  73.1298733  88.6025810  19.2399788  73.7645960
  89.1230583  17.9905879  73.0870152  95.1672745  29.7940731  59.6568727
  94.5606232  29.5910215  58.9448500  95.9590244  29.2994928  59.4453192
  70.3305864  16.1916804  16.6932321  71.0408306  15.5667984  16.5472674
  70.1701832  16.5774250  15.8320093  47.8004837  38.9511180  75.0719213
  47.2666645  38.2223606  74.7554064  47.2629499  39.3665934  75.7462120
  94.5744419   8.3556503  36.8177724  93.9621639   9.0791500  36.6840053
  95.0356102   8.2746935  35.9829068  19.7316658  76.2844563   8.6792868
  18.8151145  76.4870453   8.8667005  19.9257255  75.5239296   9.2271650
  16.9062483  12.4056387  58.6982059  16.5524268  11.5169001  58.7326288
  16.6454411  12.7996743  59.5306396  70.7439756   7.8433681  65.7409573
  69.8927927   7.4331832  65.8941555  71.3802195   7.1569806  65.9417009
  54.3981218  86.5147305  62.2008038  54.0682697  87.3663902  62.4873352
  54.3203306  86.5363026  61.2470150  75.3619099   7.0582318  57.2819328
  75.6696939   6.3409901  57.8360701  75.4638481   6.7310977  56.3881636
  78.9879894   3.2901913  50.5690098  78.3720112   3.3436304  51.2997246
  78.8411999   4.0953603  50.0726366 103.7191391  84.1044521  69.3736792
 103.3603382  84.6688747  70.0584555 104.6140575  84.4198990  69.2477798
  86.8204021  19.4864082  51.4988708  87.3713779  20.0862551  52.0017052
  87.1821880  18.6191487  51.6810989  21.2336802   2.7403465  80.4686737
  21.0616422   2.8993279  81.3967705  20.7104206   1.9672611  80.2570915
   0.8607638  94.5689583  88.2312870   0.8952747  94.9314022  87.3460293
   1.7780164  94.4859219  88.4920216  98.4492874   8.4678209  48.7000608
  97.6774120   8.5138744  49.2642593  98.7258625   7.5526416  48.7467957
  88.8782215   9.3108779  52.5405645  88.0165100   8.8941371  52.5366497
  89.4535255   8.6754286  52.1145821  81.5052509   7.1534550  50.9843731
  81.4225006   6.2185585  50.7963514  82.3466206   7.4012977  50.6010866
  84.5634460   2.7304697  42.0570660  84.7794056   2.3656908  42.9152775
  84.6083260   1.9829389  41.4609003  53.4760475  19.0447271  42.8404665
  54.1569185  19.3062973  43.4603262  52.8471136  19.7661126  42.8570366
  10.0878417  15.1957703  87.7324486  10.8998525  15.6585872  87.5258827
   9.9567491  14.6008754  86.9941139  81.4805508  22.6433492  25.5923486
  80.9474277  22.2899365  24.8802280  80.9600163  22.4888682  26.3806462
  99.3479156  35.2459884  56.4226532  98.4825611  35.1998043  56.0161352
  99.2634583  35.9280348  57.0889187   6.2180376   4.8377609  81.6116810
   7.0158494   4.3090376  81.5982914   5.5075967   4.2014110  81.5306568
  46.8907356   5.9850860  72.1030760  46.7697287   6.3605917  72.9751921
  47.8403044   5.9311962  71.9951582  45.0763702  27.5705624  67.6602221
  44.9332142  26.7686844  68.1629467  44.3308544  27.6141667  67.0614433
  73.7076473  20.6530976  71.7218781  73.9792013  21.4208865  72.2248602
  74.3738985  20.5654192  71.0402203  71.6592407   8.8502526  42.7751637
  72.2150803   8.8030332  41.9973135  71.3820505   9.7655165  42.8162622
  48.3789921  89.0886784  70.3775454  47.5926304  89.5080090  70.0282288
  48.8628387  89.7995377  70.7980108  90.5050850  19.9476480  65.5436707
  91.0734463  20.5816078  65.9810400  90.9596729  19.7420239  64.7267914
 110.7085323  16.8931568  45.9607935 111.4619637  16.8005514  46.5438843
 110.0307560  17.2917306  46.5066814  48.5908413  85.0356770  72.0328712
  49.1352701  85.7818222  72.2840500  49.0802670  84.6078205  71.3302755
  94.2779732   1.0769017  87.6682377  93.6242962   1.6767173  88.0276299
  94.2735100   1.2535015  86.7274761  42.6730299  67.2623444  52.6726007
  42.1496487  68.0347729  52.8862762  42.2085810  66.8527460  51.9427061
  92.2477055  17.6818013  74.2833662  91.8172550  16.8493032  74.0887117
  92.6281548  17.9556155  73.4487915  55.9897757   7.1434969  78.8460302
  56.3456678   7.4095511  79.6938419  55.1728201   6.6928852  79.0599632
  82.0975018  21.9805908  59.4743013  82.3460674  22.4607205  58.6844158
  82.6900864  22.3088527  60.1505566  80.1807976  27.1851206  29.8825169
  80.5726242  27.6716518  29.1572642  79.8964596  26.3592386  29.4909716
  35.6976438  93.5299683  70.5661774  35.6584477  93.8682556  71.4607477
  36.5652585  93.1313229  70.4986620  24.4601655  12.7346396  52.8922701
  23.8663602  13.4848726  52.8643799  24.7448325  12.6882970  53.8049841
 106.7390442   3.6808142  60.6389952 107.3334503   4.2904302  61.0763502
 106.8934250   3.8241053  59.7052574  51.7158985 100.0975800  57.9385424
  51.9758654  99.6241474  57.1482801  50.7592487 100.1077557  57.9078484
  95.7107830  13.5424769  63.1373262  95.8857346  13.1037974  63.9699030
  94.8157310  13.2861888  62.9150105  71.8749952  99.2496109  78.6048555
  71.9332314  98.7548733  77.7874994  72.7271938  99.6776962  78.6869478
  67.5081491  93.0140209  30.2731395  67.6201916  93.6500835  29.5666695
  67.3334503  92.1864986  29.8248982  82.0557022  58.1220388  90.1791477
  81.9794655  58.0324984  89.2291927  82.9981136  58.1670332  90.3406143
  87.8317356  34.2233849  59.3974447  88.6565590  34.6309519  59.6616364
  87.8968716  34.1460705  58.4456015  68.0521631  30.5040216  26.6357803
  68.8500977  29.9787426  26.6959143  68.1619215  31.1833739  27.3011088
  83.5171223  21.9447541  69.1239929  84.4380188  22.1797514  69.0101862
  83.3933544  21.9135880  70.0726461  87.8805161  40.7047319  71.0700941
  87.2853947  40.8702040  70.3388739  87.3310089  40.7872057  71.8495083
  91.0322380   9.5444566  14.7406805  90.8042526   9.4625348  15.6667161
  91.7132759  10.2167654  14.7202539   3.3185384  38.8779402  59.6242285
   2.4378577  38.9109564  59.9977875   3.4743574  37.9478860  59.4600582
  89.2786980  10.9015715  59.9907160  88.7360477  11.5061128  60.4969645
  88.7279320  10.6482792  59.2499495  92.3729610  27.3726869  39.5969868
  93.2544041  27.6382518  39.3347430  92.5132465  26.7343831  40.2963591
  19.0759480  38.8674045  79.3572617  18.4972048  38.8603020  78.5948706
  19.7709990  38.2475376  79.1361237  80.1524925  25.4750013  20.5198812
  80.6407738  25.4556966  19.6968138  80.4936123  24.7323442  21.0182095
  68.8574505  97.4724483  42.1613312  68.6956596  98.1534576  41.5084314
  69.7643757  97.6123333  42.4336433   8.8349026  95.3979778  17.9682076
   8.6641616  94.4562817  17.9851532   8.1540835  95.7546043  17.3976541
  73.4755707   8.4596759  58.7978935  74.0979147   7.8912389  58.3442402
  72.9479837   7.8623027  59.3280172 102.5020313  15.9134245  35.9161949
 102.4305153  15.1302052  36.4618015 102.7669811  16.6046655  36.5230083
  68.3068466  36.9012189  70.8885717  69.0983391  36.6016674  70.4413176
  68.4707499  37.8263450  71.0716200  93.5860062  36.8389940  51.7151928
  93.8558388  37.6822519  51.3514090  93.4734249  36.2735200  50.9511280
  98.8691044  53.1856108  62.4641514  99.5919895  53.5889721  62.9447508
  99.2486954  52.9433537  61.6194916  12.3918641  97.6501846   1.9654109
  12.1319354  96.9774818   1.3360195  12.7518976  98.3552647   1.4273804
   2.1954036  86.0911846  10.0779223   2.5141859  85.8713818   9.2025381
   1.5975857  86.8254852   9.9377394  13.3925068  29.8778677  53.1662083
  12.9320323  29.0388823  53.1490040  13.3132517  30.2129412  52.2730780
  33.0041552  60.1250267   3.1908172  33.2742882  60.8317947   2.6045251
  33.2575274  60.4272985   4.0629789  91.7218399  67.3501492   9.1673982
  91.0429955  66.8265104   8.7417197  92.4494171  67.3503685   8.5454160
  79.1879749  45.1046419  84.3601799  78.5076857  45.7775831  84.3358421
  79.6148300  45.1645708  83.5055256  51.8576908 101.9625473  79.7459698
  51.3424540 101.1565113  79.7132063  51.8131828 102.3116112  78.8558006
   1.8554500   4.9552074  67.7661228   1.6886503   4.0282071  67.9366541
   1.1937744   5.2027696  67.1202660 108.6763954  26.9644952  63.7519789
 108.6356163  26.8902326  64.7054243 108.0108261  27.6169443  63.5338783
 111.1052895  47.0306826  44.3152571 111.4011192  46.5397835  45.0818920
 111.8735600  47.0712948  43.7457466  98.9906311  30.0671363  90.4206848
  99.0998173  30.9602356  90.0940609  98.3017731  30.1363897  91.0816765
  92.1026897   9.2391002  52.1733189  92.4369812   9.6333259  52.9789639
  91.2847328   8.8163614  52.4350071  70.4319000  32.0834780  91.1179638
  70.5140114  31.1549354  90.9004879  70.0638485  32.4824929  90.3295803
  80.1664639  45.7546616  67.9389048  79.7204638  46.0510635  68.7322903
  79.5066977  45.2438164  67.4698973  79.8939800 105.9223843  57.7409935
  80.3301430 105.3187561  58.3423519  79.0050364 105.5772305  57.6580524
  88.0294514  28.7245631  56.4313936  87.7337360  27.8372431  56.6349792
  88.3575821  29.0645790  57.2638321  98.8208103  46.5361357  56.1531639
  98.2365227  45.9227228  56.5987682  98.2456207  47.0386076  55.5761671
  74.6519470  11.4382410  64.2053366  74.6043348  12.2628582  64.6890450
  74.0845776  10.8413029  64.6931744 104.6377468   2.1817420  79.8022938
 103.7124443   2.0853640  80.0275898 104.7389984   3.1114432  79.5982456
  89.4241142  34.8510647  84.6969318  90.0035381  34.4169784  84.0707874
  89.3829250  35.7587051  84.3957329 107.7306652  99.2652130   7.3036742
 108.6104965  99.6353054   7.2318155 107.1995926  99.9774551   7.6599121
  15.6734169  12.2499526  70.9518385  16.5236664  12.6459217  71.1429310
  15.0770056  12.6445699  71.5880775  98.9755535  33.2579017  64.1414690
  98.5968304  32.6100492  63.5472584  98.3329391  33.9669704  64.1637897
   4.7567794  23.7569110  -0.0868240   4.9841449  23.3965127   0.7702908
   5.5043075  24.3068473  -0.3213611  98.3261013  41.6332722  59.4145679
  97.6391983  41.1111403  59.0001059  98.6698914  41.0698128  60.1077890
  87.7171135  54.3359423  61.5114260  87.8238869  55.2125168  61.8808222
  87.6253796  53.7643385  62.2737122   8.9431661  81.5024567  24.0262651
   9.3621427  82.2288990  24.4877529   8.5072064  81.0007286  24.7150612
  58.3652639  25.9365392  58.0074263  57.7223301  25.4981041  57.4500799
  58.9688778  26.3547802  57.3934603 109.2009926  85.4834461   8.3870935
 110.0314617  85.8541107   8.0885166 109.1512012  85.7220936   9.3127286
  78.6155176  14.7525859  58.4650373  79.4511795  14.8845410  58.0172825
  78.3643818  15.6259394  58.7657356  88.9308453  30.0407243  85.9478092
  88.5334492  30.9109211  85.9152508  89.2050552  29.9365830  86.8589592
  18.9830267   6.0489482  83.7442112  18.5129666   6.1303723  84.5740604
  18.3484447   6.3220823  83.0816936  31.3582611 104.6336842  75.6971741
  31.4331460 105.1646900  74.9042940  32.1754503 104.7922611  76.1697054
  21.7607760   0.7742149  46.8973064  21.3353467   1.2292804  46.1705637
  21.5844083   1.3243613  47.6604986 104.1723347  41.2078381  69.8544264
 104.4139194  40.3869057  69.4255447 104.5832443  41.8872881  69.3198872
  52.6074266  97.8925323  71.6780043  53.5070515  97.8792572  71.3513041
  52.6889324  98.1605339  72.5933027  96.7389584  47.2800684   6.3421631
  97.3712826  46.8203974   5.7898080  96.6648483  46.7353153   7.1257353
  80.1474571  13.6319005  39.7522736  79.4200516  13.7559867  39.1425872
  80.0039768  12.7608085  40.1221943 101.7085743  16.2900865  57.1597815
 101.5414429  16.8488455  57.9187870 101.5141106  15.4045630  57.4668074
 100.5832195  20.1651120  50.8649492 100.5184078  19.7511244  51.7255592
  99.7130489  20.5324626  50.7097387  85.6582260  30.4742098  52.1752977
  85.1532650  30.7382417  51.4061832  86.0115337  29.6145773  51.9463110
  87.2901917  27.3224878  46.4300060  86.9600964  27.9683900  45.8054399
  86.5110207  26.8453646  46.7154598 110.3104496  10.2402544  56.0204554
 110.7933235  11.0274982  55.7688332 110.8707047   9.8123574  56.6679573
  13.0641484  23.8372684  54.6146107  12.6960480  24.1228080  53.7784290
  13.0977404  24.6329141  55.1456976 104.6886063  41.6820335  76.7055225
 104.7807121  41.9753456  77.6120090 105.3760719  41.0251713  76.5952969
  91.3685036  23.5623407  73.6720371  91.1415577  22.7865624  73.1593037
  90.7643509  23.5440326  74.4142675  11.2306809  29.1413260  69.7802258
  11.0992587  29.7644615  70.4948330  11.9935763  29.4753957  69.3084002
   4.9835229  27.2529435  74.9016237   4.3004578  26.9668651  74.2951441
   5.2176362  28.1312633  74.6016598  85.9037685  28.3903527  71.4368057
  85.2281857  28.3404207  70.7605457  85.5583382  29.0147591  72.0747948
 105.1633453  14.3665111  24.6538091 104.9861717  13.6414683  25.2531075
 105.3647137  15.1067257  25.2263165  36.5855312   0.7008804  70.4050493
  36.7878962  -0.1486484  70.0131559  35.8201313   0.5346008  70.9552765
  82.8071690  11.2534440  61.8357277  81.9889355  11.7497957  61.8168783
  83.3597088  11.6774714  61.1791182   3.6993715  50.7350874  68.9763927
   3.9164275  49.8847055  68.5943270   4.2000845  50.7662344  69.7915888
  76.0789347  32.5279069  79.5384312  76.7713165  31.9288707  79.8177004
  75.7413721  32.1433282  78.7294912  93.5070705  40.4262972  61.9689751
  94.2650700  41.0054827  62.0478058  93.6614609  39.7400498  62.6181746
  42.2898674 102.3411751  29.4703269  42.3158312 101.4179707  29.7218275
  43.2081842 102.5820827  29.3482900  77.2143507  29.0197182  48.5077143
  76.6982508  29.2564392  47.7371073  78.0175877  29.5337558  48.4251738
  94.7832966  58.1291437  86.9605541  95.5075645  57.7857018  86.4373684
  94.5353889  58.9427614  86.5214634  17.9732859  42.1972227  22.3790860
  17.3813379  42.9475355  22.3255610  18.0012882  41.9802380  23.3109474
  69.2399359  26.5992522  43.6413908  69.0497351  26.4430308  44.5664024
  70.0513363  27.1070290  43.6461449  42.7793980   5.8949530   3.8880631
  42.1115208   5.2346420   4.0729010  43.5500097   5.3900242   3.6283797
 107.4804020  28.5098839  80.9759426 107.0094204  29.3208528  81.1676121
 106.8605423  27.8148842  81.1972523  98.1600761  19.9394250  69.9697828
  97.6310253  19.1504681  70.0876045  99.0647602  19.6291077  70.0082922
  17.0926595  31.7069173  52.7834702  17.2267616  30.9390521  53.3390188
  16.6802859  31.3608456  51.9920063 110.5625534  11.6988873  14.8888421
 110.7293987  10.9641111  15.4791784 109.7727966  11.4470232  14.4102097
  88.0579472  22.9091263  45.0198412  87.3953629  23.5959816  44.9460125
  88.7096596  23.1325865  44.3553400  96.0460091  23.8607526  67.1401548
  95.7189083  24.3153024  66.3638639  95.3386116  23.2637906  67.3839998
  95.0969505  18.2858634  67.5178766  95.4997063  18.9890718  67.0084429
  95.7827950  18.0063295  68.1242657 106.1492157  63.5823441  87.3810291
 106.4952564  62.9809570  88.0404377 106.8817902  63.7289906  86.7826462
 105.3965473   7.9325986  89.9209213 105.1177025   8.7251985  89.4623756
 104.6147919   7.3806596  89.9422455  23.2464647  64.7941732  15.1381922
  23.3235216  63.8574314  15.3193402  22.9958606  65.1805735  15.9773123
  71.5884590  29.2263794  91.0929298  72.3009109  29.8128223  91.3473511
  72.0166111  28.5333347  90.5903339  77.7903223  43.6200571  61.5538073
  78.4611559  42.9382420  61.5171385  77.4591732  43.6786890  60.6576300
   6.4329773  33.9998913  69.2120695   5.9934527  33.2240582  69.5601082
   5.9608102  34.7367859  69.5997238  48.6887026  21.5149355  72.4941587
  48.4216356  22.3157072  72.0428610  48.0228901  20.8708143  72.2532606
  40.4989290  96.0310555  60.1249266  41.0700512  96.5476704  59.5564556
  39.7893786  95.7409191  59.5517015  17.3610234  83.3240318  12.9620361
  17.9800487  82.6174736  12.7781570  16.8609488  83.4212875  12.1516657
  74.5766497 103.2479477  53.9283276  74.5297527 103.8886166  53.2186985
  74.0238380 103.6142063  54.6186066  63.5404491  11.1999714  42.5970793
  63.9470530  11.7972219  43.2249308  63.7221479  11.5908551  41.7424297
  95.5769730  55.9297276  43.5720015  95.8340740  56.6765308  44.1127539
  94.7800159  56.2188911  43.1276083  92.1624184  50.9566307  64.0290403
  91.4431763  51.5284681  64.2972422  92.2123337  50.2949429  64.7188997
   9.5673430  26.0218000  37.7559781   9.4178480  26.0246897  38.7014270
  10.2067411  26.7195129  37.6124573  87.5889111  26.1815786  57.2799158
  87.3946190  26.2809634  58.2119036  87.3084831  25.2906656  57.0704699
  76.0357094  17.1432436  58.3905506  76.9881630  17.2022879  58.3159208
  75.8744860  17.0475590  59.3292141  85.3709316  28.8377523  57.8504801
  85.6513405  29.1476464  56.9893360  85.5878067  27.9054451  57.8518248
  81.0455418  96.6474533  76.6539574  80.5373669  97.3993874  76.9582272
  81.3874149  96.2496090  77.4546289  49.0533638  20.2703667  58.9257002
  49.2960978  19.8164558  58.1186819  49.8871279  20.5523038  59.3019819
 108.6170673  45.7377195  85.8119774 108.5655880  45.0024080  85.2013206
 108.7940311  45.3322029  86.6607857   3.0416033   8.9314109  63.7541914
   2.1658757   8.5938436  63.5660934   3.5088813   8.1870407  64.1333914
   9.5627838  34.8258305  72.3380709   9.1280514  35.1039505  71.5319157
  10.4959428  34.9419665  72.1593046 109.5605469  11.1614907  74.0448523
 109.4191647  11.6404700  74.8614407 108.7190628  10.7426059  73.8641071
  98.4523964  76.5053320  14.2894244  97.6876259  76.3652802  13.7310910
  99.1217899  76.8479967  13.6971986  91.3888550  63.1905413  48.5110664
  91.0510254  64.0405607  48.2289839  91.4773655  62.6873779  47.7016068
  95.3444576  38.5911489  66.1786461  95.3844357  39.2524385  66.8695354
  95.8853626  38.9478683  65.4740810  33.5504341  97.5407124  54.6140051
  32.9424167  98.2582569  54.4359970  33.8715076  97.7128601  55.4991627
   0.8335460  43.6364222  88.3111000   1.1777536  43.8418674  89.1803169
   0.6352232  44.4892406  87.9243183 109.2963409  34.2612314  83.1778336
 108.4211636  34.3336844  82.7969646 109.7546768  35.0453901  82.8757477
  78.8577509   7.8822047  73.9288807  78.5326004   8.7760043  74.0367222
  79.8025417   7.9529500  74.0652466  62.2818518  37.5148463  89.5207214
  62.4471045  38.3493948  89.9594116  62.2520351  37.7354121  88.5897541
  99.3296146  24.9379921  44.4878960  99.5443153  25.7261729  44.9867964
  99.0345001  25.2653480  43.6382008  77.0136404  48.4943628  87.1181774
  77.3112917  48.7400484  86.2422276  76.9160557  47.5429201  87.0798874
  93.9491749  61.4481592  88.7416744  93.6297989  61.1494064  87.8902245
  94.8976135  61.3266230  88.6978245  49.5504189  87.2472286  59.3651438
  49.8450136  87.0639706  58.4730339  48.6484003  86.9278812  59.3898630
  68.6740351  24.7545576  71.2181473  69.0150785  24.9399853  70.3431988
  69.2393446  24.0584803  71.5530062  95.5893135   8.8788939  27.1509385
  95.8042812   9.2905867  27.9879141  94.9229717   9.4492388  26.7676210
  74.2810440  30.8711672  81.1816025  74.7494888  31.2286735  81.9359112
  74.6850777  31.2964201  80.4251957 102.8020668  31.7938447  51.6020584
 102.0527744  31.3265991  51.9714785 102.8718662  32.5895739  52.1294832
  85.2398682  16.3288891  72.1060324  84.4729519  15.8116591  72.3520756
  85.8294392  16.2549365  72.8564787  88.4665680  84.3849468  66.8604898
  88.4820747  84.4896126  65.9091520  89.3195248  84.7079849  67.1509218
  31.0458803  58.5791445   1.8985015  30.6411529  59.3718910   1.5463942
  31.9369221  58.8454914   2.1250729  75.9352112  30.0816751  73.7974882
  76.5397072  30.4133344  74.4614363  75.2239943  30.7220554  73.7798357
  15.4135776  82.8164387  14.8887289  16.1065090  82.8653336  14.2301798
  15.3170097  81.8807220  15.0657749  81.4414978  21.1177945  51.9813967
  81.2520790  22.0276666  51.7522907  82.2691059  20.9269595  51.5399504
  96.7624378  31.4371443  63.6077785  97.1462345  31.2565279  62.7496958
  97.0965958  30.7392859  64.1713095  65.5354500  77.1778059  71.7248917
  65.7531691  77.0985126  72.6536226  64.5941591  77.0088196  71.6842747
  94.2338467  59.3747759   0.2444784  94.6522522  58.8281965   0.9096283
  93.2961559  59.2799377   0.4117149  35.0338173  86.4110756  16.3181746
  35.3632951  87.2848320  16.1078739  35.7393479  85.8196068  16.0562289
  91.9559288  27.0067120  42.5438023  91.0216331  27.0562482  42.3416615
  92.2105122  27.9118538  42.7230644  97.1793175   7.7048290  53.8162279
  97.8087711   8.1898296  53.2825756  97.4485111   6.7901266  53.7320471
   8.7087840  35.9495759  64.1729021   8.5966808  36.4593720  64.9752569
   8.1850606  36.4131761  63.5194349  86.6175079  22.6870823  41.0097504
  86.4839554  21.7397046  41.0392857  86.9584751  22.8536129  40.1309776
  95.9074020  68.1983900  81.5334320  96.2653923  68.7813950  80.8639717
  96.6725636  67.7527332  81.8969536  69.4791603  84.7874355  47.9403257
  69.5076704  85.6673908  47.5647068  70.0454092  84.2657757  47.3715830
  93.6140442   1.1641783  74.3700647  93.6126328   1.0679088  73.4177208
  92.7045536   1.0131013  74.6274185  89.3972301  13.9380920  80.4079723
  89.6778393  13.3284557  79.7254562  88.4633923  14.0686738  80.2433014
  75.2013016  22.8334451  73.1878042  74.6580553  23.3774662  73.7580347
  75.8828211  22.4881434  73.7644529  94.0758133  43.3031321  53.7170315
  93.3449650  43.8636875  53.9775467  94.8558998  43.7779093  54.0038681
  89.6530342   8.7578648  88.5886955  89.2106628   9.2039347  89.3108845
  90.2959824   8.1912422  89.0150642 108.5407734   6.0928833  72.3443604
 109.0564060   6.0238200  73.1478453 109.1438103   5.8291584  71.6493607
 111.4934731 104.1801167  69.3496227 111.2926483 103.7218380  70.1656342
 111.9233513 103.5211945  68.8044119 101.3440895  17.9084861  49.4259834
 101.1990070  18.7827206  49.7877836 101.0679817  17.9786122  48.5121536
  95.0629902   6.1399180  41.2492657  94.8166466   5.4742754  40.6070328
  95.9822559   5.9568501  41.4433765  79.8137951  94.0987682  48.9759111
  79.1923428  93.3802986  49.0935421  80.1277828  94.2909336  49.8594904
  91.0794353 101.8767071  54.7285414  91.7787457 101.2231064  54.7304773
  90.3183842 101.4142323  55.0794744  90.7854843  16.7337179  63.6378717
  91.1047554  16.2398875  62.8826046  90.3645134  16.0771370  64.1927719
  41.8623686 103.0815887  63.1482697  41.8056393 102.1260738  63.1478119
  41.9600821 103.3152866  64.0713501 107.5432682   1.5667218  74.2090130
 106.8094730   1.2542474  74.7382927 107.3575211   2.4948129  74.0662670
  43.0020666  10.8060169  22.2994208  42.5659800  11.4725018  21.7685199
  43.9355516  10.9469330  22.1413851 109.6740818  52.1537781  72.4260235
 109.8810768  51.3405561  72.8865194 109.1893482  52.6748085  73.0661774
 102.0805550  28.3834863  54.3557978 101.8687725  27.4831104  54.6021748
 102.6939869  28.2942414  53.6264324  19.4110322  44.3293571  76.0370684
  20.1514792  44.5206881  76.6127110  18.6562622  44.2857885  76.6241455
  82.5579357   5.0957197  30.3872657  82.7319050   5.4542029  29.5169449
  83.4062672   4.7670957  30.6848931  72.5823069   4.8174769  76.4191437
  72.2827673   5.6591690  76.7627525  72.6948977   4.9682966  75.4806328
  65.9674644  28.1424999  66.7933750  65.1690149  28.3002162  66.2895489
  66.2367821  29.0106606  67.0933676  59.8189545 104.9588871  57.5475121
  60.0967121 105.0816536  58.4552622  60.2662945 105.6534767  57.0641279
  80.7334779  34.8254635  91.2976558  80.7496242  34.9936058  90.3554766
  80.0525353  35.4084446  91.6333502  80.2007675  98.7839699  52.7758360
  79.8115015  98.5942841  53.6294889  81.1311340  98.9130306  52.9601955
 108.6136246  20.7189012  73.9653778 109.0317535  20.3442168  74.7406244
 107.9286098  21.2889862  74.3146420  81.9925022  70.7335997  40.8784103
  81.3642406  71.4286613  40.6824350  81.4603043  69.9404907  40.9414673
   5.1764053  78.0044031  30.1844573   4.2830247  78.2308006  30.4430056
   5.6171215  77.7914524  31.0070491 102.1056747  48.1305218  13.4270501
 101.4477158  47.9330730  12.7604628 102.6449299  47.3409843  13.4725773
  85.1913452 104.8409081  39.6167016  84.6670628 105.1339054  38.8713813
  84.5879078 104.3157101  40.1423168 102.5500774  54.1867065  46.0449743
 102.9457760  53.8954687  45.2234888 102.0090103  53.4484768  46.3251495
 101.3088036   4.6138778  75.2203655 101.5996170   5.1596564  74.4897556
 102.0700550   4.0744340  75.4341936  26.6239882  82.3836040   1.5368371
  26.2497473  82.5207901   0.6665755  26.1862493  81.5980339   1.8646842
  78.6458492  43.6493587  19.6092415  78.9587164  43.2524538  18.7963402
  78.4566927  44.5579386  19.3748450  48.3242512  99.9721622   9.0347809
  47.5376511 100.5175495   9.0284240  48.5846138  99.9166012   8.1153488
  80.3429985  25.3176093  90.8807755  79.9863338  25.6435800  90.0544834
  79.5795059  24.9985456  91.3619232  38.2751560  83.0055809  15.7069731
  39.0470290  82.5932217  15.3191555  37.6048946  82.3224163  15.6905019
  12.1318805  90.7517242  14.2310631  11.3425899  91.0359764  13.7701392
  12.4573255  90.0135231  13.7159085  97.5138569  53.9938021  43.5755157
  96.8382263  54.6536398  43.7316561  98.0303001  53.9844656  44.3813848
  33.0306530  99.6225643   9.6223897  32.4813175 100.1689339  10.1844811
  32.7557898  99.8423672   8.7322390  22.3909450  79.1282701  17.7243531
  22.1109891  78.6745024  18.5193050  22.7925777  79.9379396  18.0395699
  92.8435326  30.7906580  74.5103884  92.8500366  30.7119513  73.5564518
  93.5351944  31.4236212  74.7032166   2.3476161  77.7592945  13.4769893
   2.9482740  77.0414686  13.2765675   1.6139624  77.6327562  12.8753483
 107.1013069   9.3178487  69.8917675 108.0359077   9.1603535  69.7578001
 106.8282604   9.8111767  69.1182661  84.4452286 100.1244354  66.5857029
  84.6828651  99.2040443  66.4733028  83.5141754 100.1599216  66.3663340
  92.1351433  30.5074573  77.1399498  92.4763012  31.3930607  77.2646523
  92.0882320  30.4004264  76.1899137  82.7145576  35.9363127  70.9510231
  82.8851223  36.8432474  71.2052011  81.7619514  35.8515072  70.9909010
  84.6025562  12.6581740  59.5673561  84.0550613  12.0834970  59.0323639
  84.3097496  13.5421860  59.3459558  78.7582684  38.5052538  80.9666634
  78.0059576  38.0312133  81.3209820  78.5770893  39.4241405  81.1642933
  54.5628023  99.8297596  60.0388765  54.2457628  98.9566803  60.2700710
  53.8191175 100.2473450  59.6043873 110.4530430  26.4002824  36.8421173
 110.3201485  25.4669142  37.0076394 111.0164928  26.4285517  36.0688400
  80.8037186  27.7041078  61.3408470  80.1560879  27.8543472  62.0294952
  80.7067013  28.4534526  60.7532215  90.6894398  96.4012241  72.3770571
  90.1510811  95.6990623  72.7422571  91.5143871  96.3461018  72.8594017
  62.8361273  21.1449289  50.7788086  63.0024195  20.9796381  51.7068481
  62.0974207  20.5758309  50.5627775  60.9572268   2.3710458  55.9210539
  60.5643559   3.0405465  55.3610086  61.8472958   2.6847517  56.0810423
 112.0451546  12.3753321  54.8389387 112.9988956  12.4376190  54.8911381
 111.7413998  13.2796407  54.9176645  75.5094147  22.2172713  50.0412083
  74.7947073  22.6552677  49.5790577  76.3028193  22.5293517  49.6060610
 102.7020741  50.3548861  82.2099113 102.4010468  50.2375889  83.1109428
 103.6441517  50.1899338  82.2487259  92.6187038  27.7766252  71.1551523
  93.2428741  27.1954107  71.5896988  92.7642155  28.6310530  71.5613651
  56.1532688  82.3447132  78.9980650  55.4000473  81.8425941  78.6869907
  55.8471775  83.2515335  79.0124941 105.5147839  65.8243752  67.3682690
 105.8549690  65.9554720  68.2533216 106.2900734  65.8498621  66.8074608
   2.9796562  53.7872171  10.8122754   3.4940839  53.9890480  11.5938520
   3.2751304  54.4227600  10.1603472  88.7947083  71.3061428  85.0561619
  88.0832386  71.0447073  85.6407166  89.1344929  70.4814911  84.7087002
  76.6762543  64.0471363  20.0431061  77.3691750  63.3957911  20.1519465
  76.1685276  63.9942837  20.8528304  90.5712891  23.1588411  46.9578409
  91.4433861  23.4252191  47.2489262  90.0908470  23.9806414  46.8576097
 110.5185223  54.8409033  66.0779333 111.2139702  54.4379473  66.5977573
 110.1069355  55.4674053  66.6731834  95.7239246  27.0370102  56.5340471
  95.8743000  27.8208137  57.0625067  96.2865448  27.1528220  55.7683611
  11.9279575  50.5092192  51.1723471  11.3476193  50.1749754  51.8562460
  11.8875766  51.4607811  51.2679100  79.0806675  16.7434657  85.2225780
  79.7453070  17.2840405  85.6494999  78.7052441  17.3119617  84.5501900
  90.2665234  15.9834409  28.1923079  89.9153996  15.7326734  27.3378730
  89.6339035  15.6377888  28.8220358  68.1528521  67.0723486  53.2191992
  67.1994019  67.1070766  53.1419659  68.4691000  67.1517324  52.3192453
  97.6428127  34.4113946  82.4061584  98.3490658  33.8793731  82.0395565
  97.9158401  35.3148198  82.2464466  79.4464445  37.7861691  86.2179852
  79.3379211  37.3442268  87.0600891  79.8128414  38.6416459  86.4419174
 108.4012413  30.8330441  56.9375277 108.1879902  30.1152945  57.5338459
 108.3174324  31.6221166  57.4728537  12.1316910  62.0122290  78.5951471
  12.0596874  62.3833561  79.4745255  11.7235744  62.6644945  78.0257416
   7.2070664  70.4271936  50.7490110   7.7697635  71.1484718  51.0307264
   6.4001626  70.8523130  50.4584789 101.0883522  40.8934355  74.6807289
 101.2807655  40.3669548  75.4566336 100.2884579  40.5086231  74.3225098
  41.1436675  89.8895143   0.6164440  40.8221899  90.7888554   0.6802258
  41.9082989  89.9485396   0.0436577  78.8098431  23.7295580  62.4847078
  78.0484915  23.9565277  63.0186176  79.4881296  24.3461061  62.7604389
   6.3445824  59.2174053  74.2785072   6.1111867  58.2988405  74.1443396
   5.5072653  59.6811295  74.2690182   1.9104350   1.8936253  61.2315083
   2.5554863   1.7053580  61.9131947   2.4065031   2.3498189  60.5517769
  74.1843128  14.1737378  73.3862400  73.5157156  13.5581815  73.0857372
  73.8538027  14.4957709  74.2248631 109.8301411  89.6126461  76.5498018
 109.0447807  89.4147587  77.0599842 110.4551029  89.9480534  77.1925735
  91.5440464  36.5603495  53.3867407  91.2527657  35.6519008  53.3085775
  92.2501850  36.6414618  52.7456284  95.7958221  30.1093888  79.8379230
  95.3959846  30.9790754  79.8415279  95.7437992  29.8256421  78.9252281
  97.2045517  46.6200590  42.0780611  98.0456161  46.9996119  41.8235302
  96.6391087  46.7596102  41.3184404 107.9771805  42.7737045  68.1350279
 107.0318604  42.9239941  68.1320047 108.3444405  43.5661888  68.5265923
   6.2596947  30.9020519  53.3579445   5.5844373  31.0960340  54.0080452
   6.5811682  31.7607069  53.0829906  39.8640418  65.5242014  45.2635241
  39.1141248  64.9499416  45.1083326  40.0228024  65.9445190  44.4183302
 103.4552383  22.2739959  71.8776417 103.3401012  22.5362134  70.9642887
 104.4035530  22.2092509  71.9905186  80.5969334  55.5238485  38.0456471
  81.0467911  55.1460886  38.8013959  80.4554939  54.7830534  37.4561977
  92.8164387  65.9142447  72.0817423  92.7397633  66.8087721  72.4136686
  91.9761658  65.5074692  72.2931862  70.2334452  70.9792614  63.8473558
  70.9834003  71.2329435  64.3853569  70.4924488  70.1464844  63.4528494
   5.0065219  24.5199633  78.7665749   5.5443186  24.0169144  78.1550646
   4.5464838  23.8574004  79.2819452   1.3077681  63.8886166  73.2182407
   0.5834384  64.0730810  72.6202869   0.8842632  63.5825729  74.0202475
  19.8587501  82.3043346   4.1131100  20.7257915  81.9754505   3.8758230
  19.3304932  82.1773624   3.3250415   1.7099945   1.0781810  82.9814243
   1.8285756   1.6210781  83.7608051   1.4799483   1.6988087  82.2899532
  79.8667860  14.4729197  83.8418388  80.3367043  14.7245562  83.0467987
  79.8417664  15.2719390  84.3683147 106.1396980  10.9162581  74.7144413
 105.9195900  10.9270716  73.7829542 106.0526371   9.9980545  74.9704742
 106.4774418  54.1340923  65.2506781 107.0933342  53.4859705  65.5925035
 107.0127964  54.7070312  64.7017145  15.8510935  22.1327710  69.5736361
  15.7958710  23.0406809  69.8717642  16.6332686  21.7867160  70.0033808
   0.4163661  13.8453996  88.4306526   1.0513516  14.5446265  88.5859108
   0.4306725  13.7150764  87.4824715  90.2807045  29.3620968  62.3042774
  91.1593819  29.4551444  61.9361782  90.4283810  29.1148543  63.2171249
  10.5295956  43.9385414  40.8911276  10.0755250  43.3003616  40.3408766
  10.8853233  44.5773315  40.2733612  47.8321743  72.1494389  43.7904787
  48.5881948  72.6692295  44.0633917  48.0357456  71.8830252  42.8939199
  16.6729128  54.8672247  66.1606503  17.4452782  55.1640224  65.6794071
  16.6524065  55.4175758  66.9435453  85.2301121  50.5904198  51.4947987
  84.6265221  50.7382345  50.7667446  85.0835991  49.6784639  51.7460060
  83.9857960  27.9815102  86.2382507  84.4659233  27.3141599  85.7479954
  84.1031551  27.7354288  87.1557999  27.8629375  66.4198542   7.1521121
  27.5263453  67.1878958   7.6136899  27.0953202  65.8629465   7.0223236
  22.3812056  10.9876812  78.8774109  22.0511246  10.1016331  79.0263987
  23.0089498  10.8921325  78.1611443  48.8581655   6.6553752   0.2507672
  49.2057511   6.8601768   1.1187920  49.6002099   6.2776439  -0.2213684
  38.1752706  98.4052944  10.4571009  38.3567953  98.4755707  11.3943005
  37.2229576  98.3253193  10.4029262 105.6974506  37.0751238  31.8415523
 105.1096344  37.0328856  31.0872865 105.1378822  37.3551679  32.5659084
  21.5516949  41.4535713  85.4588699  22.2409081  42.0130777  85.8168793
  22.0207930  40.7875967  84.9562263   9.4298518  60.8390951  60.5765057
   9.0695935  61.3035536  61.3319683  10.2720881  61.2637472  60.4135990
  99.7291470  14.3490565  59.2491627  98.8688564  14.7611356  59.3286610
  99.5450687  13.4745753  58.9061880   3.8054532  22.5382471  37.9495549
   2.9078972  22.8525710  37.8408074   4.2577124  23.2545090  38.3952713
  16.2307443  84.7419236   1.2464031  16.6613283  85.5837391   1.3953098
  15.6143846  84.9108956   0.5338177  82.9110813  22.2712827  40.1439619
  82.8722095  23.1384158  40.5474520  82.6605511  21.6695023  40.8449078
   4.2110211  32.4982524  60.2686405   4.6282703  32.6161623  59.4152784
   3.2743448  32.5841379  60.0911808   3.0534288  24.6227980  14.4513762
   3.0235481  25.1462221  15.2522302   3.9837053  24.5749569  14.2310846
  84.3795204  28.1128955  82.8991699  85.1845360  27.8082037  82.4804306
  84.6787167  28.6058331  83.6631966  91.3078499  33.1953645  67.4926233
  90.4122066  33.5222387  67.4076891  91.8588161  33.9590049  67.3208141
  96.1736107  30.3299952  52.1989632  95.3056908  30.6987238  52.3632336
  96.7141819  30.6611395  52.9161501  90.3492641  31.1391020  52.0806789
  89.4613457  31.0350800  51.7386150  90.9140205  31.0448289  51.3136101
  98.9310551  40.8040857  69.9331856  99.0371990  39.8531389  69.9073601
  98.0903435  40.9629869  69.5040131  86.8204689  27.7911568  64.5684242
  87.0549107  28.3248663  65.3276491  86.7730999  28.4140778  63.8431931
 108.4631252  43.9217949  39.8353529 108.5789490  44.7545433  39.3778038
 107.5694180  43.9580870  40.1762390  79.2364645  51.9855642  28.2759500
  79.7378492  52.4898005  28.9167237  79.8899603  51.4448357  27.8323364
 102.6296711  10.8290958  76.9914865 101.9871235  11.5169322  76.8175650
 103.0501270  11.0953033  77.8091574  91.8218613  55.3237581  90.7191563
  91.6464615  56.1535263  91.1629486  90.9585476  55.0071812  90.4532623
   6.3887131  46.4456654  75.6010914   6.2268192  47.2899055  76.0221386
   7.3063546  46.4845085  75.3315401   8.8796473  51.7978668  55.2363873
   7.9303670  51.8683434  55.1357317   9.0023595  51.0727787  55.8490992
  82.3572731   8.0388355  87.6471710  81.5438366   7.5390798  87.7164364
  82.1841049   8.8464755  88.1308651 109.9421883  18.1136072  90.5122471
 109.6632481  17.2115374  90.3551006 110.0026417  18.1830895  91.4650059
  95.5319881  33.7879634  41.6007137  95.7651043  34.4374943  42.2640371
  96.2525368  33.1581020  41.6186285 108.1705761   8.5523307  57.1261597
 107.6904202   8.0885941  56.4401340 108.7411880   9.1572124  56.6520882
   8.4332168  32.2222471  71.9902420   8.3985329  32.1677089  71.0352278
   8.7941074  33.0908895  72.1675873  85.1071453  41.9214630  90.9997177
  84.7960758  42.7275610  90.5878067  84.3086147  41.4572906  91.2509727
  60.4463720  99.6463776  53.3120251  60.3539276  99.1358662  52.5076246
  60.4840326 100.5557346  53.0155802  18.0855107  56.8272734  62.4452782
  17.4439895  56.5647650  61.7851496  17.7767444  57.6791286  62.7538872
  83.0711555  95.2336025  56.9523668  83.7088394  95.1280594  56.2463570
  82.2574902  94.8775959  56.5953827  72.2541952  12.0681655  44.0887403
  72.9846096  11.7031300  43.5892630  72.4438763  11.8329835  44.9970007
  94.6092796  29.3165517  82.1653652  94.5703888  29.9947381  82.8397369
  95.1084805  29.7156811  81.4528084  89.0662956  40.0983906  88.3619404
  89.9002552  39.9112129  88.7928867  88.4875393  40.3778076  89.0713024
  12.6349807  97.9213428   6.4675629  13.4190881  97.4508286   6.7504555
  12.9703212  98.6898136   6.0057980  43.5425043  90.4364300  19.1345263
  44.2565203  90.6591511  19.7318590  43.9224243  90.5315590  18.2611167
  69.5883465  16.0629833  47.9857397  69.0167046  15.7077217  47.3051167
  70.4644966  15.7634938  47.7430344  23.7193894  77.7180195   3.7645373
  24.3939781  77.0460892   3.8628611  23.6279893  77.8289795   2.8181934
  14.8180282  88.7213326   0.4226901  15.2001333  89.1578197   1.1840751
  15.3050339  87.9007149   0.3476197  94.4946003  49.7953701  68.2539558
  95.1419830  49.2041302  68.6381054  93.7849426  49.8230600  68.8957024
  95.5260849  29.6924090  77.1143770  96.0060310  29.2491651  76.4147949
  94.6686172  29.2670846  77.1232986  41.2364864  10.3608930   8.6664402
  40.9982586  11.2876081   8.6404294  42.0159340  10.3294432   9.2211479
  38.4837723  74.6252966  63.0950308  37.8895688  75.2994013  63.4247875
  38.0876303  74.3385267  62.2721863  89.1325855  38.4315872  70.2609921
  88.7796021  39.2581797  70.5902004  89.8600674  38.6902285  69.6952009
  20.8204842  60.3582668  62.2930622  20.2579880  60.3935909  61.5193796
  21.2367415  59.4975185  62.2474480  79.8808248   0.6137246  71.2936258
  79.4635732  -0.1458770  71.6999960  79.4223030   0.7216233  70.4603481
 102.0503712  49.8332405  61.2851238 102.5921440  49.1809034  60.8410835
 102.2268963  49.6975899  62.2160769 103.3918095   8.1703621  54.1524267
 102.7400780   8.8380051  54.3662548 103.0805397   7.7855206  53.3331347
   1.8657102  74.6528673  66.9407177   2.5444880  75.0530195  66.3972330
   2.0819262  74.9246407  67.8326941  22.0895219  26.1529636  88.0255318
  22.1772647  26.9764161  87.5454712  21.7714143  26.4125419  88.8902092
 112.3821866  25.9459972  60.1891518 111.9910739  25.1249170  59.8906755
 112.9246681  25.6950331  60.9367895  84.0704441  21.6813064  71.8115234
  83.4951687  22.1066284  72.4474430  84.0258408  20.7511044  72.0328045
 104.0686989  50.1600409  85.9933758 104.6028423  49.5263910  86.4723396
 104.3478775  51.0115433  86.3298702 105.4076958  26.9140530  81.7007923
 105.3622437  26.1372614  81.1433315 104.4982052  27.1991348  81.7889595
  25.4166389  58.8072062  12.5134504  25.5749750  58.6123753  11.5897620
  24.4831133  59.0140390  12.5580037   8.7753946  37.2452950  80.6787014
   9.4807565  37.5992799  80.1370430   7.9724705  37.5198960  80.2358246
  47.3186636  88.7864208   4.0558994  46.9761467  87.9936600   4.4687328
  47.9588461  89.1249657   4.6818259 102.1626377  11.5430880  69.3385887
 101.7545128  10.9227049  69.9425650 101.9272709  12.4040747  69.6843338
  98.0250740  27.4342823  64.0680838  97.9445744  26.7893291  63.3653831
  97.3711681  28.1008315  63.8574791   5.8495402  38.0826521  48.6227560
   5.6258816  37.8884625  47.7125359   6.7962062  37.9493093  48.6704636
   3.5329518  10.9607267  80.9922886   3.1225723  10.9901154  80.1280212
   2.8788072  10.5450630  81.5540314  23.2064199  35.1695609  89.8111820
  22.4239802  34.7556973  90.1755142  23.6020827  35.6280375  90.5524540
  89.4364548  43.0332279  83.0033112  90.2362537  43.2318735  83.4902382
  89.3057442  43.7937260  82.4369335   8.4304446  29.1347909  53.0460548
   8.0053651  28.2792449  52.9862118   7.7078450  29.7549939  53.1431532
 102.8346920  42.4607706  64.0648699 102.1779728  42.6456451  64.7362709
 102.5460529  42.9629374  63.3028030 102.3625946  20.3447509  57.0872498
 102.4829578  20.4638243  58.0293560 103.2065392  20.5862045  56.7055607
  10.1319313   6.8694401  51.3847780   9.8714375   7.7867925  51.4674759
   9.3227994   6.4100128  51.1601353 107.1140575  33.5724592  67.9959106
 107.5065327  32.7399969  68.2589674 107.6444817  34.2369008  68.4356880
  90.9850025  33.9736724  82.3380089  90.7934666  34.8538899  82.0143414
  91.1226845  33.4523511  81.5471268  81.2569904  66.9421244  64.8420191
  81.0400772  67.4526548  64.0619326  81.2370682  67.5777435  65.5574369
  94.5989895  67.3304605  88.1832790  95.0612259  67.1121740  88.9925480
  94.2228222  66.5002489  87.8909111  87.4268627  30.3495646  48.1503582
  87.6617813  30.0279832  47.2799397  86.5246105  30.0566840  48.2784510
  94.0664005  19.3885314  82.8532982  94.8546314  19.6825063  83.3099365
  94.0358734  19.9230289  82.0598221 111.0667896  81.0393333   3.3614543
 110.9712505  80.2975559   2.7640691 111.1372566  80.6407642   4.2288688
   4.4170246  68.9487886  22.9855084   4.5163274  69.6226740  23.6580038
   3.6771062  69.2460394  22.4559879  43.6524153  45.5957031  57.5420618
  43.0624580  45.2148151  58.1925297  44.4516182  45.0731087  57.6084518
  81.9551659  11.4222705  53.0821848  81.6782665  11.3737023  52.1672010
  81.1915112  11.7662454  53.5455942  24.6828914  37.6960254  83.6375046
  24.9010229  37.9859734  82.7517414  24.6954226  36.7402649  83.5865593
  76.0950994  35.5602694  69.8011494  75.7725477  35.6749225  70.6950426
  75.9953356  36.4227057  69.3980551  21.7325187  41.8310547  63.7924576
  21.7105484  41.9499254  62.8429222  22.6062632  41.4828444  63.9700937
  66.8843794   4.9579421  11.0203803  67.6742554   5.3939414  10.7006419
  67.0064640   4.0382332  10.7848752 103.6001015  73.9111662  63.0250359
 102.7502918  73.5756969  62.7395487 103.5696983  73.8586330  63.9803123
 108.9594555  47.4114275  74.1823196 108.0806923  47.7762842  74.2866993
 109.5467281  48.1349134  74.4011974  79.9871206  50.7144976  58.8459015
  79.9138212  50.5861092  59.7916174  79.0817595  50.7318735  58.5356665
  13.2226078  19.2389919  90.7089809  13.1106608  20.1372339  90.3977517
  12.8419535  19.2406227  91.5872359  95.1804543  14.3710721  71.9797993
  95.8483505  15.0487781  72.0840263  95.6061459  13.5673571  72.2782278
 104.6579456  55.9678030  61.1167097 104.3769264  56.1105156  62.0205307
 105.6083965  55.8698273  61.1740494  80.5289745  35.9239340  68.2489920
  79.6466684  35.6448221  68.0043221  80.5324554  35.8956361  69.2057657
  79.8941231  41.3879919  76.5663767  79.3678474  41.0226250  75.8551979
  80.7763100  41.0516739  76.4087057  90.5976868   6.1399651  72.5275803
  90.5459976   5.9832180  71.5847158  90.4551411   7.0817727  72.6219749
  87.3742771   3.2143798  52.3515463  87.9458237   3.1287113  53.1145859
  86.5267086   3.4711337  52.7147770  71.9172764 103.7258244  60.6310081
  71.6424131 102.8185654  60.7635450  72.4367476 103.9345551  61.4074135
  10.3484452  17.8456247  13.1831753   9.8199630  18.0989563  13.9399850
   9.8813862  18.2110119  12.4317884  61.1972713  69.0043783  15.6041777
  61.6058111  68.1945133  15.9098613  60.2948189  68.7564182  15.4033589
  36.3184667  77.2778797  14.2106378  36.0150599  76.4359522  13.8710284
  36.1808705  77.2184277  15.1560295  87.7748203  25.8027625  73.0946445
  88.4532738  26.0966325  72.4867201  86.9577980  25.8949304  72.6045132
  27.9484415  72.9192019  80.9033298  27.2181654  72.5147533  81.3716793
  28.3835220  72.1896076  80.4621601  75.6335974   3.9807761  12.4719453
  75.0547123   4.0079746  13.2337749  76.5147829   3.9305827  12.8423798
 104.8635483  61.0274172  51.3636446 105.1487255  60.7435322  50.4951334
 105.2669716  61.8877649  51.4788675  82.6190662  64.6904850  63.8490963
  82.1667767  64.7606754  63.0084181  82.7636528  65.5971766  64.1197205
  13.2649362  67.6455545  54.7128153  13.2245016  67.0504045  53.9642191
  12.6841855  67.2515011  55.3637218  88.6071301  29.6260142  74.7661066
  88.0688953  29.9948931  74.0657711  89.4145966  29.3542767  74.3297672
  15.5017614  56.0152054  80.3422451  16.1826968  56.3445854  80.9288120
  15.9069395  55.2692938  79.8998880  61.1574602   7.4070686  63.5600662
  61.6659975   8.2037282  63.7115717  60.2646875   7.7177960  63.4095955
 101.2937164  21.6633749  67.6800680 102.0104408  22.0332789  67.1646070
 101.1167717  22.3221755  68.3515644  95.1589489  26.1579847  77.5336838
  94.4547844  26.7702174  77.3202515  94.7448921  25.2956223  77.5002289
 108.5328674  39.5207691  65.1789808 108.5972118  40.4205894  65.4990101
 109.3443012  39.1045380  65.4697704   1.2443087  46.5871143  75.7916641
   1.1263547  45.9023523  75.1333141   1.5579423  47.3439026  75.2965546
  96.1465549   8.3061427  50.0153923  95.9261417   7.3761523  49.9627781
  95.3020954   8.7476963  50.1056671  67.1861267  99.7986317  25.6942391
  66.8501616 100.6394291  26.0047507  67.2019720  99.2441940  26.4743543
  85.1272869  38.5457706  60.6850719  85.2220631  39.0867043  59.9010849
  85.9061337  38.7407851  61.2062168  15.4925299 103.9453030   2.3530382
  14.7792590 104.4470215   2.7476963  16.1286807 103.8366699   3.0599618
  42.3387384  74.0904236   4.7195116  42.4943686  73.3870697   5.3498304
  42.2328615  73.6413670   3.8808402 110.1270199  51.4338970  59.6457148
 109.9126244  51.2179470  58.7381744 109.8602581  52.3479176  59.7438574
  89.9762630   7.8506607  43.6707830  90.5100536   7.0800954  43.8645077
  90.5982208   8.5782486  43.6676645  86.5058041  45.9432077  67.2244358
  86.2198257  45.2997065  67.8727818  87.3760223  45.6455374  66.9592333
 102.9391289  38.5017562  81.1495113 103.1005859  37.9075670  81.8823814
 103.6024475  39.1852593  81.2447071 111.2101746  13.8850307  81.8899536
 110.9927368  14.2219198  82.7591228 112.0060730  13.3706093  82.0246792
 102.9535007  38.3914208  60.3567696 103.0233574  37.4440432  60.4743671
 103.6649132  38.7516022  60.8862972 102.2004032  57.0718050  71.1525393
 101.4935398  56.7044926  71.6832590 102.6771927  56.3082504  70.8271360
  94.0217113  53.3448029  49.8602486  94.9331856  53.1972218  50.1125574
  94.0032578  54.2491913  49.5472383  52.0110321  16.7694271  64.9078894
  51.6880703  15.9544325  65.2922249  52.8318834  16.5241253  64.4809723
  85.0387001  24.0249324  76.8814564  85.3848362  24.0730596  75.9903336
  84.0920639  24.1198802  76.7761564   1.2743597  84.4643402  18.0835330
   1.4942588  84.0912914  18.9371800   0.5702447  85.0859642  18.2680011
  85.0249290  34.3228793  62.3671532  84.7324562  33.4986234  61.9781828
  85.1410580  34.1216159  63.2957220  95.7997894  44.6808290  67.7673626
  95.4049969  43.9090776  67.3614454  96.6961479  44.6958065  67.4318933
  83.6573601  11.1501503  37.0258617  83.6098671  10.9036946  37.9495692
  84.5931435  11.1455131  36.8245459 109.2454720  28.7355185  53.0237103
 109.9401093  28.8641667  53.6695862 109.4177723  27.8686810  52.6560974
  12.2896326   7.9342294  74.8629904  11.8810940   7.0777112  74.9883127
  13.1920278   7.8147912  75.1590490   9.1599065  30.9458351  45.3276539
   9.6377707  30.8787656  44.5009851   9.4724649  31.7613077  45.7194996
   1.5601142  42.7670383  71.0883188   1.4551097  41.9599056  71.5920448
   0.9591918  43.3870840  71.5014410  37.8605294  74.6525049  42.7793932
  36.9932079  74.9772358  43.0213308  37.6917100  73.8102627  42.3570633
 110.4752445  25.6435394  62.4140263 111.3476086  25.9277058  62.6868963
 109.8778725  26.2489653  62.8531504  19.6425354  19.9992299  69.4295263
  18.9908695  19.8031723  68.7563801  20.4195046  20.2684093  68.9395285
  80.0569916  45.7272816  64.6013355  79.5928288  45.2923203  65.3165913
  79.3641758  46.1180019  64.0688181   1.9498482  51.4847422  65.3469372
   2.7626425  51.9824171  65.4359293   2.1483569  50.8173180  64.6901464
  24.3719745  77.7717781   1.2111840  23.6699247  77.8717136   0.5682450
  25.1566243  78.0820608   0.7592076  80.0321007  33.3844805  81.5254974
  79.7774887  34.0957069  80.9376526  79.2040586  33.0523515  81.8723011
  97.4306107  61.0287094  68.5573339  97.8990841  60.6362772  67.8206158
  96.7781544  61.5985346  68.1501007 111.6504669  40.4173183  52.0899963
 111.2005329  39.8177719  52.6852560 112.4813080  40.6083345  52.5252581
 102.5763035  66.5884829  49.8449373 103.5235786  66.6707373  49.7348022
 102.2766399  66.1709595  49.0374041  28.9561486  32.7294064  50.3703928
  29.6233296  32.1086764  50.6632948  29.0914345  33.5026336  50.9181595
   2.0810689  49.3029213  71.5610361   1.3717632  49.4023371  70.9260273
   2.4283652  50.1878834  71.6726828  71.9998121  29.6416950  77.4126673
  71.5182304  29.1211390  78.0555725  71.9790649  30.5326581  77.7619314
 111.3770199  20.5043221  61.7855263 110.9055042  21.3318563  61.8808508
 111.7912292  20.3651857  62.6371717  85.2746010  31.7896533  45.3226423
  85.4697037  32.3974776  44.6093988  84.9298477  32.3443127  46.0224485
   7.9038972  32.7522516  57.9844856   8.5698462  32.2119451  58.4097052
   8.1065339  32.6916361  57.0509481  36.1663961  23.8039184  72.1206856
  36.4468074  24.3038678  72.8872681  36.0052633  24.4661999  71.4486313
 111.2580585  43.5846186  44.0038252 111.5867329  44.3036175  44.5434999
 110.9062767  44.0125084  43.2231903  19.0538645  69.3400145   5.1392961
  18.1201375  69.3964052   5.3422868  19.2437196  68.4018421   5.1438177
  20.3207159  88.6732960  26.6378593  19.9622548  89.5227337  26.3806009
  21.2054896  88.8699722  26.9456315   6.6541976  25.7469821  41.9075680
   6.4981037  25.2240205  42.6939392   6.7114103  26.6477084  42.2263956
 107.4645329  35.1192760  54.1248369 106.9554710  34.4287777  53.7002182
 108.2012844  34.6601439  54.5281124  14.0297878  72.9287672  54.1616249
  14.5405912  73.6034775  54.6089220  13.1346941  73.0590105  54.4747925
  67.4369001  88.7911892  11.4221060  67.7715588  89.4450951  10.8083892
  68.1130219  88.1139469  11.4427686  61.2100840  89.6560478   0.1264958
  61.8285656  89.6264076   0.8564508  60.3520107  89.7376537   0.5427685
  16.0321093  36.7377472  83.8636589  16.9550061  36.9916987  83.8647366
  15.5829656  37.4690199  83.4397030 104.2018700  51.7113638  41.5195799
 103.9755154  52.3511791  42.1945906 105.0607300  51.9910908  41.2028027
 102.5662708  52.0436335  63.1196117 102.1988487  51.5566778  62.3819733
 103.5131359  51.9356346  63.0300713  85.7447052  45.9182167  85.8904934
  85.4183388  46.3349724  85.0929832  86.6972160  45.9361792  85.7975578
  27.8212976  61.3206816  49.5365000  27.7352428  61.1636496  48.5961962
  28.1407189  60.4903698  49.8897457  46.3653040  73.7265396   0.8728222
  46.7976093  74.0593243   0.0863111  45.5481529  74.2223024   0.9249350
 100.0009632  31.6697359  68.6162615  99.3818474  31.0516810  69.0047741
  99.8592758  31.5896678  67.6730013  94.3887234  98.9116383  81.3524723
  93.5324097  98.5287666  81.5431690  94.6637726  98.4898281  80.5384350
  94.7113705  33.5882068  31.4226508  94.4215584  32.7704024  31.0183764
  95.0668716  34.1012907  30.6969786 105.8553600  30.7342815   0.2359651
 106.1269951  31.2021208   1.0256308 105.0881004  30.2307010   0.5079132
 101.5841389  94.9092484   1.4738949 102.5318718  95.0080872   1.5647468
 101.2906456  94.6121597   2.3351949   5.6114727  18.0900884  65.8835411
   4.8706728  17.4923134  65.7829809   5.4732913  18.7578559  65.2118063
  24.4289970  50.9686089  59.3157291  24.6134543  50.2860069  58.6705446
  25.2873087  51.2024117  59.6690989  84.1239452  18.0510688  54.0347862
  83.8113689  18.4911585  54.8252583  84.3579292  18.7639380  53.4403944
   6.5305698  36.0620761  50.8803511   7.3815244  36.4573646  51.0697126
   6.1627066  36.6071963  50.1848269  87.8474808  43.4271240  64.9353838
  88.1869888  43.8581085  65.7197428  88.1390381  42.5189686  65.0159073
   1.1135872  19.8667741  79.2355442   1.3243468  20.5442429  79.8780775
   1.2077448  19.0439296  79.7154379  72.3487854  99.5971298  90.2662468
  72.3020649 100.2532864  90.9615993  71.7506695  98.9054012  90.5490971
   2.2775155  60.1161003  36.9874835   2.5532436  60.6028461  37.7641964
   1.4615448  59.6896029  37.2492552  93.9668179  24.3230009  62.1582603
  94.3336678  23.4571433  61.9795322  93.0242920  24.2146707  62.0312214
  16.2603903  64.1158915  60.7151270  16.1384940  64.6211195  59.9113083
  16.7656839  64.6937752  61.2869310  16.6993332  26.9785666  83.3749390
  16.5417504  27.8468227  83.7457848  15.9021473  26.7795706  82.8838921
   2.2404043  56.2592983  78.6968040   2.9753506  55.8390284  79.1434193
   2.4715886  56.2227678  77.7686596  98.2414532  64.0770626  82.7758121
  99.0229511  63.7823963  83.2434177  98.2880020  63.6340809  81.9285679
  13.9560521  42.7371550  85.5231190  13.7498128  43.6568832  85.3563881
  14.5459557  42.4910021  84.8106194  91.3798904  30.6207252  66.2415314
  91.5746784  31.0655546  65.4166603  91.4195061  31.3125277  66.9018888
 101.0479259  22.7321672  86.3946629 101.4715576  23.4989238  86.0088539
 101.6457272  22.4515200  87.0875549 100.8032894  57.0059776  60.3517723
  99.9838352  57.1170092  59.8696995 100.7447624  57.6342678  61.0715389
   5.8617085  41.1535597  90.7559299   5.5005383  40.8249092  91.5792084
   6.3214189  40.4030752  90.3795433  15.1765573  87.8864956  81.1838913
  14.7738612  87.0218945  81.1031055  14.4647753  88.5001564  81.0021877
  41.8761389 104.8845096  45.1817751  41.6053860 103.9703029  45.2663374
  41.0977261 105.3878879  45.4203367  18.2929063  21.9703126  70.6662512
  18.6670971  21.2274384  70.1925945  19.0306473  22.5654197  70.7997417
  84.7243023  19.0532279  73.2645798  84.0043545  18.4376645  73.4023571
  85.5122471  18.5104907  73.2930994 106.9520569  75.8335114  86.6985512
 107.1676064  76.7569065  86.8293571 106.2890148  75.8377981  86.0082054
 107.4665070  48.4986687  57.6853943 108.0364609  47.9308081  57.1668148
 106.7497826  47.9286337  57.9639721  98.5922432  45.2026415  39.8481607
  98.1076241  45.9972811  39.6247363  99.2718887  45.4988527  40.4536152
  81.2772942  56.9601297  82.0049763  80.9247017  57.7017450  82.4968243
  82.0324707  56.6705227  82.5168991 107.2592258  27.6560760  90.2524567
 107.3615074  28.3942485  89.6517277 106.4078045  27.2807264  90.0279045
   4.1572002  49.9152756  35.4418254   3.6085933  49.9774599  34.6599078
   3.5365060  49.9150801  36.1705017  99.8052216  42.4636841  48.6849165
 100.7140541  42.1856260  48.5711956  99.3369389  41.6621399  48.9183140
  45.1326752  67.0366144  19.4565260  45.1190233  66.1131191  19.7079349
  45.4926777  67.0380926  18.5696054  22.3502183  26.0892057  80.0379467
  22.7641177  25.4985523  80.6672668  21.4222622  26.0769105  80.2724171
 105.9104633  17.5429606  85.2162075 105.7977581  17.7505195  86.1438179
 106.8552971  17.5954974  85.0720978 106.3216591  37.2972798  52.9318523
 106.4619923  36.3774610  53.1565189 105.5038834  37.3002577  52.4344015
  19.7652483  30.1296592  67.7624607  19.6291327  30.8017588  68.4302807
  20.1780939  29.4051600  68.2324505  19.4249892  41.5116167  34.7171211
  19.9475741  41.1431503  34.0048242  20.0598383  41.9700766  35.2675867
   5.9306419  85.1725864  56.5102577   6.6501540  85.7040405  56.8509674
   5.9516275  84.3743801  57.0381403  35.1682663  23.9562201  64.6223688
  35.0802255  23.0039620  64.5813084  35.0553632  24.1674519  65.5491209
  64.1608906   1.6138884   4.9828583  64.4714403   2.0187934   4.1730174
  63.2983112   1.2637760   4.7601277  99.8256111  48.2517433  37.1957350
  98.8774490  48.2526541  37.3269486  99.9776077  47.5601768  36.5516329
  99.4377708  35.4110527  77.8085661  98.5768795  35.8293462  77.7969790
 100.0164223  36.0647678  78.2010508  97.4248409  93.6041164  89.7473526
  97.3453045  92.9338360  89.0686607  97.5822067  93.1117439  90.5529881
   5.8009207   4.8351604   0.6403358   5.4814047   4.9903154  -0.2485221
   6.7247224   4.6115294   0.5271502  18.4122694  61.1066103  75.7338572
  17.8524268  60.8007288  76.4474678  17.8237700  61.1804724  74.9825573
  38.4363461 101.9168568   9.5917749  39.3037271 101.5989399   9.8423976
  37.8287935 101.3882732  10.1091850  58.9438105  90.1340199  16.8957233
  59.0296936  89.8466492  15.9867263  59.1035223  89.3443966  17.4126554
  91.9017410  59.5759106  80.7475567  92.1738720  60.3202581  80.2107811
  92.4519730  59.6302176  81.5289211  18.5179865  67.8049803  87.5007057
  17.7405190  68.2851171  87.2156715  18.3886492  66.9182730  87.1641731
  29.3839288  91.8156910  19.0015912  28.5593534  91.4491081  19.3208492
  29.5048952  91.4180470  18.1393373 109.5831013  47.5259876  84.2884731
 109.4946003  47.1575403  83.4094620 109.2565155  46.8393803  84.8699665
  79.5883512  14.4723749  10.9227741  78.8561392  14.7217917  10.3589594
  79.2032099  13.8779056  11.5665936   4.8098537  46.8264818  69.5893860
   4.0847069  47.3953676  69.3309975   4.3885711  46.0145140  69.8712683
   6.8162757  50.5763912  86.3227367   7.7137125  50.2507114  86.2536526
   6.2698400  49.7988796  86.2082195 103.8320351  76.6984653  88.8464642
 103.7793541  75.8263254  89.2373943 103.3426476  76.6236782  88.0272293
 108.0146217  51.2645054  84.8184204 107.3665047  50.5622911  84.8738384
 107.4948597  52.0666409  84.7668648   7.3725766  39.6638680  70.1194429
   7.2107995  38.8924479  70.6625605   7.1259278  39.3906832  69.2358351
  10.8212197  70.7519293  79.1783667  10.5355871  70.8077097  80.0902462
  11.1881793  71.6154957  78.9890718  87.7868557  73.4642982  50.3773260
  87.1624756  73.1858921  49.7073507  88.6452007  73.2759809  49.9978352
  76.5954638  90.1023102  18.6122072  77.0073557  89.2920494  18.3121109
  77.2969246  90.7529163  18.5822940 101.6522694  18.5580599  55.4475403
 101.9361973  17.7085900  55.7852030 101.9422340  19.1873717  56.1079311
   5.7548183  20.5994368  77.0880461   5.2039170  20.3187609  77.8187752
   5.2290595  20.4192591  76.3087225  74.9958420  39.5490289  75.6922579
  74.4758749  39.6985912  74.9026394  75.2048683  40.4269743  76.0112524
 107.7430248  18.5468304  50.6005716 107.1710396  18.0578542  50.0089884
 107.2770786  18.5491323  51.4367104  38.6198211 103.9918613  47.7741098
  38.1552458 103.2451153  48.1519556  38.2366014 104.0966415  46.9032478
  87.0120811   8.2818377  59.2895412  87.1360302   9.0224069  58.6958885
  86.1079693   8.3663023  59.5923328  47.3067331   2.8964162   2.8067979
  46.9927359   1.9970438   2.9004291  47.3844147   3.0258024   1.8615696
 105.6792641  42.2897911  55.1828527 105.0499153  42.6887321  54.5820284
 105.9353542  41.4732456  54.7540140  98.6873150  40.0167608  49.2009592
  98.5132790  39.1611743  48.8086414  98.4237576  39.9187875  50.1159286
   0.9920640  14.0192449  85.5470181   1.6859461  14.6729887  85.4611301
   0.1806290  14.5160151  85.4420280  73.2353258  27.3066163  30.9269857
  74.0185261  26.7726421  30.7939506  73.3374834  27.6662755  31.8081427
  61.5674925 100.0397491  49.9604988  61.0921478 100.7414341  50.4053688
  62.1847534 100.4944992  49.3874168   1.5967923   9.7157973  50.2370787
   2.0915148   9.9484992  51.0227823   1.8005136   8.7920702  50.0905943
  15.1880360   3.0737069  48.4780216  15.5780768   2.6846096  49.2607784
  14.2488003   2.9167295  48.5751152  64.8459148 104.4452381  65.3349304
  65.3723240 104.6474266  66.1083937  64.8689270 105.2474117  64.8131752
 107.6061440   9.2841476  72.7833939 106.8999577   8.9500517  73.3364773
 107.2232533   9.3293089  71.9072723  45.2447510 100.1323795  50.6136751
  45.4969692 100.7889557  51.2629318  44.6549463 100.5969238  50.0199080
  84.6434212  28.2511449  61.2020493  85.1716328  28.7865448  61.7941427
  84.1585255  28.8853478  60.6739521   6.4341050  45.3698730  42.3005915
   6.5081650  45.8978605  43.0955648   7.1124524  44.7009325  42.3932934
  99.0614510  57.3023367  64.6360159  98.6080170  58.0681849  64.9883032
  99.9298668  57.3324680  65.0374937  14.7348547  14.1957867  69.1388512
  15.1920080  13.3835232  69.3567228  14.8054540  14.7299778  69.9299812
  95.3950882   2.6509812  36.1244917  96.0230255   2.1220069  36.6165352
  95.5228519   2.3881903  35.2129841  31.4697075  37.3883057  60.1511049
  31.8171906  36.5822124  59.7693968  31.5638757  37.2659802  61.0957766
  93.2519627  17.6765454  64.5558739  92.4260616  17.4024796  64.1571188
  93.9256668  17.2340035  64.0396166 102.1416664  24.5182753  43.6048985
 101.2951756  24.3483090  44.0181828 102.4314594  25.3476739  43.9848232
   2.5632307  45.9075212  17.8980720   3.2488829  46.4172983  17.4665141
   2.4468747  46.3333178  18.7474191   4.7318006  16.9135916  59.9993706
   5.6694424  16.8454599  59.8193264   4.3126640  16.7348611  59.1575813
  77.3869133 101.9720554  73.6141157  76.7859364 101.2645054  73.3808136
  77.1891451 102.1616459  74.5312738 106.4873219  27.0825434  18.8107860
 105.6417370  27.0577645  18.3629036 107.0732021  26.5804458  18.2443249
  87.2358990 105.1020050  51.6425896  88.0562210 105.0407600  52.1320391
  86.8616199 105.9424973  51.9066381 105.4095078  23.9559317  60.4277039
 105.2513313  23.0443501  60.6731272 104.5625973  24.3861246  60.5455971
  85.9446812  14.5130444  55.5620670  86.2540531  14.0435541  54.7874069
  85.7464886  13.8241374  56.1963844 105.8067608  18.3925128  52.4731636
 104.8683453  18.2260478  52.5620747 106.2077427  17.5237739  52.5003004
 108.0259037   6.5275902  63.6503553 107.3602390   6.0683507  64.1624308
 108.2394791   7.3003399  64.1732979 105.7103252  40.9115601  51.1752415
 105.7602501  40.7559872  52.1183920 106.5443420  40.5880737  50.8346510
  76.5934229  15.2020073  83.2503223  75.8654785  14.9926126  83.8355446
  77.3569202  14.7995806  83.6642742 111.2756062  48.5889864  34.5204258
 111.2966347  47.7323818  34.9470592 110.3465080  48.7537050  34.3595672
  89.2006302   6.6797578  55.1074839  89.7325134   6.6458362  54.3123865
  88.2971191   6.6526467  54.7925711  99.5759010  36.1672258  70.7136917
  99.9377918  36.4345264  69.8688173 100.3329945  36.1324954  71.2983513
  83.6872005  18.2995784  83.7642574  83.0171108  18.9445353  83.5379028
  84.4585800  18.8223660  83.9831066  91.7245579 105.6351089  45.9090853
  90.8607292 105.9965515  46.1075687  92.2654343 106.4004517  45.7143116
 104.1067123  16.7899597  65.3795767 104.4683361  17.3781288  64.7166157
 103.7930870  17.3726070  66.0712385 107.2691536  29.8168182  61.2246704
 107.7473640  29.5678830  60.4337358 106.4585781  29.3093252  61.1841726
  32.0488024  62.8850651  58.8985062  32.2870183  61.9830132  58.6845350
  31.5109539  63.1722164  58.1606054  29.6341276   1.0726754  37.4776244
  29.6707582   1.9690827  37.1439409  30.3243399   1.0351961  38.1397676
  19.7242534  84.0951252   8.7399262  19.8032236  84.1582680   9.6917719
  18.7813461  84.1130257   8.5761082 107.6229668  22.3503399  34.6396089
 106.7649841  21.9306111  34.5770454 108.1678009  21.7138433  35.1024961
  70.6951427 104.7484684  74.3774986  70.5542278 105.5413818  74.8948622
  70.1460838 104.8674297  73.6025047  16.4997518  13.1450939   8.1430346
  15.9831965  12.4334753   8.5211903  16.2988126  13.9040816   8.6905664
  92.6653099  19.7796869  57.6843023  93.3431721  19.8377585  58.3576298
  92.9165459  20.4358888  57.0342922   9.6858394  18.2630002  31.0889912
   8.9258271  18.8108742  31.2850690   9.4735116  17.4124515  31.4733267
  84.6180439  17.3850226  50.2662420  85.3834724  17.2822499  50.8317327
  84.9571133  17.8118873  49.4794416  54.1396856  88.6359978  73.4685850
  54.5813131  87.7912807  73.3811712  53.9486265  88.7107658  74.4035339
 103.0176735  10.4969227  63.4589005 103.8826370  10.8353376  63.2274914
 103.1772232   9.5897627  63.7193537  90.9649658  40.8227539  63.6076212
  91.3435936  40.7147789  62.7351427  90.8818150  39.9307370  63.9447021
 108.0524158  45.4977703  21.3033795 107.3527241  45.2773809  21.9182706
 107.9498100  44.8694706  20.5885792   7.1137005  44.6464586  63.9577579
   7.8720480  44.6137190  63.3746052   6.4139551  45.0173044  63.4201145
  97.6036549  65.4906845  54.2036009  97.1596909  65.4199076  53.3585453
  97.4270058  64.6560240  54.6376085   5.8755869  58.6565876  63.7997293
   5.0306851  58.9373970  64.1511822   5.6527019  58.1320095  63.0307198
  65.1646185 105.2381802  56.7248631  65.8440304 104.6048832  56.4934015
  64.5265675 104.7319031  57.2276640  67.6186514   3.5642987  45.0553656
  67.8025246   4.5029184  45.0177383  66.9125319   3.4840772  45.6966066
   4.4789082   3.2902417  53.1275558   4.9994481   3.8541138  52.5554419
   3.5709631   3.4963381  52.9053164 110.1273251   0.7101342  74.2117214
 109.2084980   0.9784286  74.2108870 110.0989246  -0.2419335  74.1168928
  82.3344994  11.6101623  56.6974545  81.7464828  11.5968621  57.4526262
  81.7983818  11.9530475  55.9824467  20.0082135   8.6891532  78.2123566
  19.3464470   8.9619792  78.8478613  20.7293320   8.3551693  78.7459040
  98.9041710  48.8713980  31.5104175  99.5576000  49.4118690  31.0664034
  98.9459229  49.1486168  32.4256420  97.4617290 104.0655422  14.8625004
  97.5395966 103.6572647  15.7247519  96.8296814 104.7732162  14.9887741
  81.8286037  99.1044426  89.0067863  82.4403286  98.4291553  89.3000412
  81.5892696  98.8412380  88.1181526  81.1679649  23.5233951  50.7559586
  80.4308224  24.1336846  50.7758999  81.5886688  23.6834836  49.9112034
  88.1221485  26.6749406  37.9674625  88.9657021  27.1153450  37.8639960
  87.5401878  27.3507404  38.3150816   3.6729211  33.7166071  45.4454565
   2.8459308  33.4798503  45.8652925   3.6907104  33.1972909  44.6415758
 104.9899578  44.6299124  64.6489716 104.6198082  45.4813385  64.8819780
 104.2376709  44.1119957  64.3625116  88.1603432  11.6284001  51.2530804
  88.8518333  11.6940963  50.5944824  88.5408115  11.0898435  51.9469357
 105.3532982  13.6411715  90.7120991 105.9260750  13.9305353  91.4223289
 105.7882309  12.8674304  90.3537846 100.5960846  14.1414499   9.4403881
 101.5352249  14.1858494   9.2607540 100.5149651  14.4036686  10.3573906
   8.9773387  51.2103415  69.1925526   9.8386633  51.6250229  69.2414474
   8.4462625  51.8208599  68.6812210  90.1765156  92.9511738  54.5763397
  90.7233524  93.6832333  54.2912197  90.3819942  92.2456264  53.9629841
  97.6172352  14.5276141  52.0831394  97.6507282  13.6357760  51.7371082
  97.0172691  14.9893880  51.4974451  21.6757798  43.3988333  15.3649068
  21.3160419  42.7009773  14.8173547  22.6213980  43.2510519  15.3506875
 103.9719105  23.8020086  56.2339115 103.5587120  24.0566826  57.0589209
 104.5780849  24.5167089  56.0389900   3.3369803  45.9148264  44.8111916
   2.7274549  45.4611588  44.2290449   3.1233138  45.5865192  45.6845713
  16.3015787  49.4348766  91.6548063  17.1720450  49.2727043  91.2911932
  16.4455216  49.5053150  92.5984964  23.8730812  56.9400740  61.0310173
  23.7417912  56.3088465  60.3235245  24.4954085  56.5135670  61.6201115
  62.4205256  88.0979538  74.8981476  63.2662630  88.3280849  75.2828550
  62.0842838  88.9228916  74.5479345 105.6106186  46.8659258  58.3673668
 104.6863174  46.8901968  58.1197596 105.6193924  46.4259291  59.2174053
  48.7233257  47.6971960  26.0648108  49.2366028  47.1582747  26.6667604
  48.4443712  48.4458208  26.5920472  93.0600643  41.4618587  66.0848522
  92.6428223  40.6506157  65.7949734  92.3511696  41.9666004  66.4835262
  82.0409775  92.9112434  75.9870195  82.4394417  93.3602524  76.7325735
  81.7562485  92.0680809  76.3394880  97.8705215  21.1529994  50.5249882
  97.0637989  21.1652780  50.0099325  97.9502773  22.0436716  50.8664227
  11.3390124  12.0809686  73.9921284  11.4433324  11.1915064  73.6541843
  10.9220684  11.9654119  74.8459625 105.0233746  11.6815305  49.7179127
 104.5475388  12.3093641  49.1741800 104.4302273  11.4976931  50.4463482
 106.0470581  23.2865167  13.9450479 105.5984116  23.9080286  14.5183432
 106.6842461  23.8179088  13.4677172  19.2132187  97.5982285  48.5257673
  18.8056326  97.2230434  47.7451611  19.7542703  96.8909740  48.8768911
 102.9436016  16.4579690  73.2442951 102.9114246  17.3969221  73.4275007
 103.7329578  16.1534941  73.6920071  14.1365302   6.4874649  47.6119041
  14.0329957   7.0123142  46.8181467  13.5048091   6.8580741  48.2281876
  92.8087330  48.6332035  50.1077509  93.4946632  48.6223221  50.7752895
  92.5915527  47.7108383  49.9724436  93.8811207  43.7813950  69.4997072
  94.6840382  44.2811394  69.3520498  94.1382027  43.0897474  70.1094341
  11.5874672  41.9466925  67.7478218  11.1817837  41.7718887  66.8986464
  10.9140313  41.7147207  68.3872795  80.9433937  91.6855431  55.2247095
  80.7576180  91.3177395  54.3607426  81.8238449  91.3734722  55.4336071
  47.6794100  74.6783495   3.0878347  47.3051214  74.1511965   3.7937042
  47.1830511  74.4240093   2.3099054  16.1570680  45.3489256  70.9839344
  15.7664776  45.7247972  71.7728519  15.5899096  45.6444454  70.2717352
  78.1972837 105.1954842  76.8798018  77.5143909 104.5467186  76.7095327
  78.7401247 104.7986794  77.5610495 102.4807072  32.8037524  71.9681406
 101.6772079  33.1963682  72.3094273 103.1443501  33.4852290  72.0748663
 109.3514538  33.4181023  55.1954460 110.0790024  33.2730103  55.8003044
 108.9779091  32.5477481  55.0569439  11.2828124  25.6979227  21.8470645
  11.9569993  26.3760948  21.8893123  10.9895945  25.5949593  22.7524114
 103.1352806 100.0938702  35.9441137 102.5055313  99.4529724  36.2741065
 103.4231663  99.7362423  35.1041985  31.9089270  71.5678072  55.7697916
  31.4801598  72.3704386  56.0667229  31.2285042  71.0965633  55.2889776
 105.5940437  18.9248824  90.4745483 106.4465809  19.2152238  90.7987595
 104.9662781  19.5184779  90.8865929 104.6177673  46.4867067  40.1919842
 105.1563931  46.7832470  40.9255886 103.9962101  45.8732224  40.5838156
  90.5360413  48.7801313  81.1376667  91.2676048  49.1279650  81.6476154
  89.8970890  49.4925976  81.1187458   0.3583842  11.2712467  44.3525124
   0.7084682  11.5450728  45.2002716  -0.4748712  11.7360783  44.2760372
   3.8745847   5.8536470  35.6599164   4.7233117   6.2517434  35.4664898
   3.8802895   5.0292599  35.1735163 101.7704391  25.3940511  37.5133824
 101.9866943  26.2853026  37.2392726 102.2673035  24.8330927  36.9178247
  94.7762680  17.5709903  85.8255482  94.7869110  17.2943389  86.7418385
  95.0122261  16.7837036  85.3349018  40.2612352  41.5147161  45.1057911
  40.3124046  40.5861521  45.3324699  39.6470881  41.5487337  44.3723726
  40.9619617  37.4506831  27.5308561  40.7173872  38.1686568  26.9469643
  40.2027464  37.3378658  28.1027842  85.7828236  29.1718841  54.7701931
  85.7851696  29.7587252  54.0139914  86.5684891  29.4114375  55.2617025
  84.8048858 105.3364101  17.7575958  83.8841907 105.5978705  17.7714050
  84.8778323 104.6798509  18.4503019  93.5893536  46.8107605  35.2980709
  93.5632992  45.9563541  34.8673296  94.1215420  47.3552990  34.7180009
 106.6158295  31.6789031  71.6740417 105.9458733  31.3255024  71.0888100
 106.1414337  32.2855401  72.2425270  69.6990442  80.0183582  52.4468660
  69.1967869  80.1626682  53.2488298  69.0686321  80.1601315  51.7406654
 101.1279869  87.9352188  60.0756550 101.7350006  88.5335255  60.5113125
 100.8085918  88.4269810  59.3190861  23.1095839  58.0753756  32.4085188
  23.8597059  57.5065565  32.2353292  22.3567796  57.5872135  32.0750260
  92.5737286  14.4880486  68.1294680  92.8460884  15.0098681  67.3746443
  93.2590675  13.8263977  68.2230711   8.4052610  24.7123742  44.7036123
   8.8311958  25.2251410  44.0166759   7.6471472  25.2377629  44.9594688
  88.1989193  43.8707113  61.1948824  87.3290062  43.6330509  61.5158272
  88.5485935  44.4590950  61.8640375   8.7567890  85.1690960  51.3849258
   8.6478531  84.4191837  50.8001280   8.1772423  84.9829388  52.1236420
  96.1212158  22.3546553  23.8986993  95.9805870  23.2967114  23.8039064
  95.2592468  21.9672966  23.7464237  90.1924229  18.3060455  25.5916762
  90.9980297  18.1636453  26.0886264  90.4876232  18.4464276  24.6920204
  96.6505051  25.5469298  46.4896536  97.2543907  25.1495075  47.1170378
  97.1690273  26.2229776  46.0533857  90.1469707  35.3306460  59.6323729
  90.1937103  35.9097934  58.8716888  91.0072517  34.9124908  59.6682596
  40.3225756 101.4014435  74.4798088  41.1447239 101.8022823  74.7620010
  40.0771713 100.8239460  75.2026510  97.8337860  47.7926207  67.3260498
  98.2416821  48.5319328  66.8751907  97.7341461  47.1241379  66.6482353
  92.1682453  17.7409613  67.4783802  92.9374695  18.0513072  67.0006704
  91.6867638  17.2139764  66.8406534  82.6331711  31.2715197  88.4594154
  82.1559048  30.7648969  87.8023052  83.0009079  32.0090675  87.9725647
   6.5032905  31.4501953  67.2459745   7.2523904  31.1264586  66.7456961
   5.7427102  31.2288165  66.7086267 111.8963528  59.5493937  64.3168068
 112.1037960  60.4805660  64.3950796 110.9581280  59.4968796  64.4990349
 103.8620663  40.4265642   1.8574332 104.1038322  39.5663261   1.5142615
 104.1589355  41.0434055   1.1883996  11.7042232  50.9932232  90.7517433
  12.5616920  51.3762379  90.9368801  11.6480434  50.2376652  91.3367271
  21.6786456  11.5543914  37.6297832  21.5329742  10.6491733  37.9047251
  21.0634446  12.0661771  38.1549835  11.1718976  26.5658426  58.4348297
  10.5207002  26.3048625  59.0860319  11.3639021  27.4805593  58.6413622
   2.5068516  61.8717575  66.4611769   2.6683605  62.5503445  67.1166658
   2.9913309  62.1642923  65.6892109  13.6857057  47.9438877  82.5565434
  13.1653357  47.8198433  83.3503056  13.8327765  47.0578194  82.2256660
  93.9185715  64.6613646  63.9644432  93.3556557  65.3837824  63.6861181
  93.3356953  63.9028502  63.9982557  29.0502501  16.0126173  20.2640462
  29.9331951  15.8458900  20.5939555  28.9303994  15.3697920  19.5650172
  26.3946891 102.3186493  89.7970486  26.1910725 101.3977623  89.9605560
  25.7956648 102.8011990  90.3667355   0.4132026  17.1715283   0.0536691
   0.1571498  17.9890013   0.4807611   1.2783724  16.9745004   0.4126859
   1.2095954  25.8084464  41.3026619   2.0216253  26.1725998  40.9501934
   0.5659613  25.9403563  40.6065512  78.0096579   9.9499434  16.6905725
  78.0193138  10.2682889  17.5932312  78.5902262  10.5477047  16.2195623
  54.7429657  28.1226540   9.1543514  54.3232727  28.5714698   8.4204209
  54.9883890  28.8254046   9.7561312  97.8691769  63.2046986  21.6336799
  97.0263767  63.3530712  22.0625114  98.2041073  62.4027300  22.0348024
 107.6016235  55.2513742  85.7995224 107.2549534  55.1268435  86.6830063
 108.4829044  54.8793268  85.8333874  32.8249717   4.0188608  12.0003700
  33.7120414   4.0352574  12.3596334  32.7387857   4.8519894  11.5370131
  17.6889300   9.7682649   8.0192769  18.1529784  10.5486274   8.3224678
  17.8321087   9.7570229   7.0729125   8.9790010   1.1388402  46.0380983
   8.1468284   1.0216834  45.5798483   8.8638467   1.9448224  46.5414524
  76.7439651  96.8665695  19.4981468  76.0178947  96.5473557  18.9622736
  76.9936514  97.6970577  19.0929604  10.6526816  18.7593198  76.9277906
  10.7475519  17.9555750  77.4388885   9.9186742  19.2179108  77.3366404
  90.1686668  92.2784424  21.6715550  90.4839993  91.3783455  21.7529774
  89.2925072  92.1922207  21.2958622  72.8336859 102.2238731  32.6805997
  73.1822824 101.3325977  32.6992679  72.1228933 102.1896839  32.0404148
  67.6679182  17.5891769  15.3013921  66.8559980  17.4467099  14.8148572
  68.3191586  17.0600927  14.8407519   1.5171342  24.9011850  20.1320767
   0.9032261  24.1792345  19.9973965   1.7712007  25.1675320  19.2484820
  61.4549828  98.2101345   2.8783742  61.2412834  97.2813034   2.7899069
  61.5498257  98.3453369   3.8212189 110.4657078  60.7869911  87.9134178
 111.0748672  61.4339972  87.5576973 110.7444096  59.9572515  87.5260067
  77.6130867   2.2150715  81.6952991  77.4127054   2.0475557  80.7744217
  77.5974226   1.3501287  82.1050072   4.3183285  12.0846486  23.6560297
   4.0038371  12.3462033  22.7906299   5.1783514  12.4977207  23.7332559
 110.5587769  98.7031269   6.9964260 110.7948112  97.7759171   6.9680446
 109.8532200  98.7903976   6.3554817  82.5182343  27.4312687  19.0902126
  82.5162983  27.4972558  20.0451326  81.7291164  27.8986716  18.8162363
   7.5023764  78.8839483  86.9464016   7.5956601  79.2784166  87.8135395
   7.6380640  77.9478645  87.0932579  26.1418295  20.7600474  29.6066046
  25.6468678  20.5312037  28.8199186  25.4764771  21.0400581  30.2351975
  95.0329304  11.5758634  15.7457769  94.5887375  12.2864485  16.2083757
  94.4742107  11.3962495  14.9896002  98.4321404  28.6599183  12.4683225
  99.1052151  28.3492446  11.8627787  98.5023117  29.6139765  12.4354362
  53.2480812  35.0144815  91.2820244  53.4077072  34.4446778  92.0344067
  52.4329090  35.4690027  91.4944839  49.8414660  90.9853649   3.9572412
  50.5704784  91.3878155   4.4292673  49.4256735  90.4128170   4.6018639
 103.4439564  16.0533929   6.2389725 102.7258968  16.6077530   5.9335053
 103.6808968  15.5262816   5.4759240  14.2477763  45.5064106  85.8333778
  13.9035392  46.3952017  85.7451534  13.6457932  45.0755405  86.4401722
  16.7656589  31.4889598  12.4944937  17.1704650  30.8740687  13.1062710
  16.5038705  30.9481215  11.7493808 109.4705009   8.1722248  17.4544442
 109.7603226   8.8978201  18.0073881 110.0159740   8.2358354  16.6704488
  62.8569460  24.8034191   4.6291280  63.5707998  24.3771029   5.1033658
  62.1815014  24.9474478   5.2918959  12.1626663  62.7657318  10.0033522
  13.0316877  62.3858690   9.8739815  12.3278785  63.5935068  10.4547107
 108.5692215  68.7926388  77.2848654 109.4314671  68.6617756  76.8903399
 108.7210560  68.7073803  78.2260895   1.6554265  48.3615208  79.4514894
   1.8017229  48.8164902  80.2808475   2.3342004  47.6871252  79.4252872
  16.3194263  39.7362280  58.3643579  15.3912449  39.9142694  58.2126617
  16.7492580  39.9947762  57.5491095  50.2185202  33.3359194   8.0294555
  49.8666143  33.8595366   8.7493306  49.6691799  33.5611272   7.2786313
  69.2983103  13.2633877  49.4543886  70.1093912  13.6014664  49.0748072
  69.5489264  12.9660249  50.3290319  79.0948629  98.0258656  21.6730595
  79.0476370  98.1346416  22.6228857  79.3350697  97.1076679  21.5487862
  48.0531263  26.3483381  83.1795883  47.9672146  26.8981838  83.9583874
  48.9367914  26.5258884  82.8573418  96.8821621   0.8709041  54.1378546
  97.5040150   0.2185976  53.8153219  96.1102772   0.3629747  54.3877029
  75.7251358   0.7711518   5.7127714  75.7079744   1.2803049   6.5231419
  76.1278057   1.3560426   5.0709051  94.0115070  53.6053181   7.0434582
  94.0139198  52.8182602   7.5882220  94.9362469  53.7751341   6.8638730
  32.0307565  17.0127988  17.6328802  31.8464804  16.1142766  17.9066145
  32.0632768  17.5102270  18.4500337  13.0085111   3.7594089   3.6861828
  12.2766471   3.7819910   3.0696625  13.4662974   4.5880949   3.5449657
 103.2592678  95.7993889  24.4384861 103.1092167  96.3140869  23.6455107
 104.0044308  95.2386951  24.2226672  98.3784485  31.2493730  12.6548028
  98.4901810  31.7264485  13.4770834  97.6649761  31.7053461  12.2083962
  73.6177301  94.8367405   5.1677877  74.2641401  95.5425835   5.1542169
  74.1394949  94.0343857   5.1822937   1.5325204  22.0382214  23.8485742
   2.3417227  21.5916562  23.5995674   1.7683288  22.5459790  24.6249795
  48.3474779  14.4988835  10.7361686  47.5055456  14.1022921  10.9599757
  48.1494188  15.4270160  10.6113803  96.0720825  63.7222910  16.5738785
  95.1883125  63.7855911  16.2116849  95.9460068  63.3613396  17.4514031
 104.1858292  39.0739107  20.4677820 104.6174908  38.6670685  19.7165298
 103.5933495  39.7196651  20.0828099 111.3326931   6.9803107  67.7349854
 112.1372509   7.4885571  67.8378963 111.5991211   6.2086517  67.2351980
   0.4638046   4.4313267  25.0311375   0.5480150   3.8758636  24.2561531
   1.3329183   4.4165999  25.4319572  50.9884453  98.2351685  12.8798831
  50.8992147  97.3119831  12.6432502  51.5045786  98.2269955  13.6859691
  65.9110451 103.7902832  47.1138716  65.4905748 104.4260406  47.6928854
  65.6182003 104.0353870  46.2361479 100.5681419  16.9197297  63.0210590
 100.8597183  16.7721200  62.1213770  99.6652412  16.6022563  63.0353498
 106.6423321  24.3532944  10.8819151 106.5659332  25.2990007  11.0085297
 105.7565403  24.0695715  10.6558681 105.6465435  47.4869728  32.2293091
 105.8420372  46.5501690  32.2497296 106.3512230  47.8673315  31.7049289
  38.7175608  19.6572995  28.2148647  38.9264393  19.9258637  29.1095567
  39.1929936  18.8353038  28.0943656  12.5879610  35.4456162  44.7081757
  13.0139482  35.7114363  43.8932467  12.0954442  36.2185836  44.9841785
  48.5622835  64.0780449  84.4035149  48.1632185  64.7168303  83.8128090
  47.9156446  63.3752918  84.4685268  28.5941172   4.8839664  34.3352914
  28.1289792   5.7181513  34.2719340  29.4951272   5.0928050  34.0887141
   9.7071505  47.3997355  40.9908962   9.7158748  46.7346239  41.6792154
  10.4427254  47.1675205  40.4241180  19.5719755  26.4091444   1.8450738
  19.3826365  26.0912013   2.7278501  20.5064726  26.2402534   1.7249729
   0.7266913  16.3752711  23.3375025   0.1621601  16.0835767  22.6216459
   0.6465189  17.3290932  23.3323288   0.3919966  35.5039191  13.6314869
   1.1949808  35.5294251  14.1518712   0.2712232  36.4053679  13.3331048
 101.3416862  52.5005531  33.7487769 100.8485413  52.2327662  34.5242333
 100.6935501  52.5107050  33.0444646  94.8023415  27.4479771  19.9213374
  94.2484760  27.8472996  20.5921626  95.1855278  28.1903100  19.4540668
  65.5349827 101.5571213  16.6852558  65.9739399 101.0859871  17.3934793
  66.2319946 102.0602512  16.2642324  76.3494730  38.0581903  16.9244075
  76.9301414  38.1856298  17.6746178  76.4824152  37.1447444  16.6710806
   6.9096404  19.2794895  16.7449737   6.0554373  19.4870615  16.3661814
   7.4426401  19.0060234  15.9984088  79.4917679  71.0847139  24.9247217
  79.7244072  70.6859589  24.0862060  78.6083603  71.4277172  24.7899246
  59.6595192  84.4686317  54.4104004  60.1791239  84.5993710  55.2035904
  59.8496580  85.2357388  53.8703728  24.3752599  11.5204012  37.4805117
  23.4201550  11.5790892  37.5042367  24.5576334  10.8468401  36.8253112
 102.3279190   6.1419207  48.6776876 101.4266014   5.8901471  48.4764957
 102.8622723   5.4475266  48.2923174  34.8883486   4.7686464  61.6084623
  35.1193786   4.1084811  60.9549761  35.5959821   5.4114145  61.5601206
  33.4137154  62.5321627  10.7269001  34.2857170  62.7124929  10.3757238
  32.8237629  63.0536556  10.1826286   2.6945621  40.3058434  23.9404225
   3.0672070  40.2550697  24.8206449   2.2942826  39.4477820  23.7999296
  82.7495289  30.9631300  14.2881870  83.5546970  31.4536595  14.4534791
  82.5650597  31.1110878  13.3606565 101.0049438   3.2814923  55.3891563
 100.3539562   3.8855073  55.7463884 101.7645741   3.3812803  55.9629440
  46.9700527   0.9517302  20.9906673  46.3823462   1.7005861  20.8904433
  46.5088081   0.3636315  21.5886855  55.0598574  15.5316329  44.0575981
  54.3420410  14.9263561  43.8715410  55.5509281  15.5801415  43.2374001
  93.4452534  61.2466478  36.8876266  93.0535603  61.1126232  36.0245800
  92.7204990  61.5482235  37.4353647 102.5738335   9.4581300   8.8878852
 102.3774338   9.4857907   7.9514575 103.3066177  10.0642323   8.9969277
 109.2532730   6.6150141  34.3868518 108.9688301   6.3552952  35.2631354
 108.4463692   6.8676752  33.9381862 100.2801991  21.1267185  44.0253401
  99.5531368  21.7389154  44.1385365  99.8733234  20.2613020  44.0670252
  87.6648617  56.5428638  19.9724901  87.2322083  55.8421278  20.4603577
  88.5957241  56.3236046  20.0131416  89.1252518 100.9541416  58.7376690
  88.9437675 101.6425896  59.3774652  89.8433971 100.4522324  59.1231251
  78.9206171  99.8143291  34.2006707  78.9080858  98.8691425  34.0500188
  78.5146761  99.9252319  35.0604010 111.7838955  41.8300152  41.4127064
 112.4715519  41.6098928  40.7842922 111.9297981  42.7545118  41.6133451
 106.2780857  28.7758112  20.9368300 105.8517170  28.4372830  20.1495266
 105.8122444  29.5892668  21.1305261  23.9758921  31.5310025  44.0165138
  24.7185469  30.9271169  44.0205765  23.2054949  30.9631157  44.0016556
  45.5644178  37.7429390  12.3312104  45.9666014  38.4899426  12.7744555
  46.3003206  37.2714305  11.9408786 100.6383419 100.7654572  19.5020664
  99.9204063 100.8362103  18.8729477 100.7583046 101.6567516  19.8298287
 103.8872623  24.3958664  36.0535502 103.5484505  23.5012817  36.0875416
 104.2590141  24.4779754  35.1753187   3.1214961  44.0178013  26.3765359
   3.1012991  44.7436380  25.7528472   2.3365405  43.5079575  26.1761999
 104.3961239  49.1379976  34.1904473 104.9351406  48.6528587  33.5656834
 103.6772346  49.4888163  33.6647558  75.4187489 104.2357922  29.3959188
  75.2850151 103.5965252  28.6961412  75.5776501 103.7060070  30.1771426
  67.4368382  80.9313965  38.9332223  66.9993782  81.5179253  38.3160949
  66.7631769  80.7170963  39.5785785  52.6816130  96.0329914  31.4137840
  52.3415852  95.9403133  30.5238271  52.0120716  95.6331730  31.9688439
 111.5993786  48.9235592  59.7548246 112.3421097  49.1146135  60.3276014
 111.1312866  49.7554922  59.6840477  11.2168097  14.8521757  28.7323642
  11.1986279  15.7349956  29.1018653  10.3032279  14.6634042  28.5179663
  70.3658009  98.6556816  23.4909129  69.9833679  98.0104828  24.0856433
  71.2997961  98.4465313  23.4791255  15.4028869  17.7805877  25.3596163
  14.4852257  17.5881696  25.1669884  15.3845847  18.6420751  25.7764316
  45.8711863  42.9708338   9.2439669  45.3736973  42.6941109   8.4744465
  45.5307198  42.4299192   9.9565166   3.5957095  45.8064747  50.7984495
   2.7407482  45.8838558  50.3750277   3.9478606  44.9764204  50.4771471
 107.9209518  14.6246386  12.1592367 108.6981583  14.3637931  11.6651309
 107.8469181  13.9691365  12.8528273  27.3985004  99.6538258  80.5249500
  26.9551826 100.1000404  79.8034286  26.7083621  99.4961548  81.1692238
  99.9734783   8.3230388  32.7376294  99.6630955   8.5870731  31.8714976
 100.2945137   9.1329288  33.1341696  99.0146160  33.5911798  32.6785612
  98.2752323  33.3657408  33.2431221  98.9238644  34.5323253  32.5294352
  98.1871891  19.6722078  30.0171471  98.4550095  20.4457903  29.5210886
  97.7507496  19.1141725  29.3734479   6.4699084  20.9494209  48.6849546
   6.9617277  20.8087802  47.8759050   6.7310667  21.8233824  48.9751577
  80.5335712  81.0550499   9.2131060  80.6608009  81.7625809   8.5810876
  79.7983837  80.5512810   8.8638973   9.6180230   0.6693648  26.0089993
   9.4389552   1.6095735  26.0221910  10.3045762   0.5655261  25.3501415
  29.2091632  32.7511764  82.9280758  28.2582951  32.8091288  82.8346825
  29.3429160  32.1008778  83.6176014  14.3901086  17.2032499   1.9425558
  14.0222716  17.0420015   1.0736903  14.8741853  18.0237305   1.8492146
  93.2235718  18.4645796   4.7033688  93.2550240  18.3386254   3.7550133
  92.7684975  17.6896513   5.0329423  20.9931588  69.1696262  59.5066261
  21.0728049  68.5073996  58.8200808  20.3212810  69.7699785  59.1835308
   6.0036987   1.3269533  14.9215066   5.1406050   1.4356986  14.5221627
   6.6201466   1.5498281  14.2239749  63.2002878 101.8203831   4.0710446
  62.8876257 101.4347172   3.2526696  63.6809111 101.1129761   4.5009363
  41.1536741   0.8834855  84.0364552  41.8232727   0.3739554  84.4927883
  41.4424324   1.7918274  84.1245747  47.3757744  97.8972054  36.0344338
  46.5780401  98.4259510  36.0509419  47.9451656  98.3422565  35.4067731
  73.7399149  85.6082726  19.6777248  73.8223553  84.7769165  19.2105222
  74.6263885  85.7999611  19.9837470  43.4607601  49.4380283  82.0149422
  42.7232742  49.4962263  81.4075184  44.2132568  49.7429037  81.5079594
  22.9195356  11.6673827   9.6496755  23.6573553  11.6777360   9.0399653
  22.3810220  10.9303641   9.3615133  69.6810150  96.4552498  25.1441622
  70.0896978  95.5930328  25.0680184  68.8886070  96.3001442  25.6582284
  49.8151541  72.6018572  55.0326395  49.2010641  73.2704735  55.3360796
  49.3348265  71.7784548  55.1193619  72.4997950  98.2987022  38.7831759
  72.5037289  98.9868927  38.1178856  72.5226784  98.7703514  39.6157956
   6.2856525   7.1299446   2.1307288   5.9916562   7.1109885   3.0414641
   6.0313970   6.2767231   1.7791614  82.4902344  96.0666370  44.8023939
  82.3141193  96.9330215  44.4355202  82.0799541  96.0847473  45.6670141
  78.8526058  97.9222965   4.8084655  79.6110678  98.3694553   4.4329393
  78.2946444  97.7243328   4.0563208  10.8289301  31.8892121  15.2495706
  10.1892197  31.2444043  15.5516052  11.0954392  32.3523569  16.0437381
  69.5492363  99.3316460  29.7954559  68.9603090 100.0226212  29.4922423
  70.2372742  99.2947102  29.1310215  56.2196207  99.3796349  35.3655624
  55.4096174  99.5168686  34.8743439  56.1325026  98.4987545  35.7298326
  42.7805185  94.8489761  24.5010757  42.4455309  95.4771996  23.8612723
  43.0293560  95.3841782  25.2546406  44.7405767  80.0957680  87.9172611
  44.7084236  79.6193886  88.7468815  45.5145741  80.6540298  87.9914761
  66.5795326  88.0439186  46.0965395  65.6799459  87.7793026  46.2887812
  66.8764400  87.4198151  45.4342842  53.5578585  92.4386978  16.4091897
  53.9604902  92.0125389  17.1658313  53.6281872  91.7936707  15.7054698
  16.3092458  16.5111399  18.8805687  16.2441123  15.6136394  18.5542500
  15.6361735  16.9909334  18.3978653  13.3187449  29.1805243  88.8264084
  13.6244929  29.6033931  88.0239582  12.7674747  29.8390603  89.2490959
  33.1248784  54.9426413   6.1402220  33.0247760  55.8706331   6.3524622
  33.0214906  54.9018764   5.1894951  88.1944180   9.6738607   3.1406397
  88.9554214   9.5168608   3.6996204  88.1079578   8.8731569   2.6233086
  65.7862997  78.4881449  21.7189026  66.0700655  78.2556438  22.6030135
  66.1933136  79.3383789  21.5525484  69.7049570  88.1620979  30.2357531
  69.8537397  88.8858032  30.8443093  70.2701330  87.4593353  30.5565906
   1.8804888  91.1455154  72.1602583   1.4840750  90.4100037  71.6932440
   2.3419800  91.6390038  71.4822245  93.5561371   6.2931383  23.4984779
  94.3287659   6.2611777  24.0626168  93.1681347   7.1507794  23.6720753
 109.0309715  17.7099311  24.3434715 109.8723125  18.1663859  24.3486977
 109.2283821  16.8398225  24.6901274  40.3178740  77.8124428   5.0210989
  40.8018398  77.9278946   4.2033696  40.9882307  77.8491163   5.7033819
  15.1591253  57.5666952  75.1553106  14.9498320  56.8710613  74.5319891
  14.4572747  57.5253916  75.8048725  57.2446299  96.4614201   6.9114310
  56.4287615  96.9617748   6.8958890  57.3967695  96.2228966   5.9969974
  87.6058292  54.9753428   6.3052189  88.0952835  54.1555882   6.3735205
  88.2784367  55.6563950   6.3026917  70.9268618  92.5799561  29.8991418
  70.5230045  93.1993008  29.2912388  71.5076733  92.0513821  29.3518853
  34.6346164  49.2076063  82.8134632  35.0475740  48.7762022  82.0654011
  35.0246859  50.0815392  82.8312778  48.5005999  91.3798523  32.9872465
  48.7518311  92.0010376  33.6707997  49.2939806  90.8699322  32.8236461
  20.2636242  59.8909426  88.7446880  20.8409166  60.0203085  89.4971657
  19.4701934  60.3790474  88.9648056  73.4631824 105.6995010  11.6486371
  72.9170179 105.9776974  12.3838556  72.8948259 105.7830715  10.8829844
   7.0066428  25.5382490  22.9408169   6.9433242  25.2440715  22.0321465
   6.1005622  25.6991959  23.2041526  23.5796118  54.7424984  89.4175625
  22.6467943  54.8135567  89.2150021  23.8167715  55.6044769  89.7595978
  32.6614499  54.0593958  88.6805248  33.1869054  53.3634996  89.0753078
  33.1248641  54.2804623  87.8726864 106.3457680 100.6476116   9.0863293
 106.0986900  99.9637413   9.7088361 105.6027699 101.2510967   9.0861160
  56.3445377  93.0629158  28.9277220  57.1278858  93.4812927  29.2848825
  55.6622553  93.7303257  29.0004516  39.0226126  61.3378811  84.8575878
  38.6652374  60.7306576  84.2096710  38.6726975  61.0294819  85.6934643
  58.8212776  42.7486372  69.0093899  58.9780426  43.5120726  68.4536743
  59.5629358  42.7364302  69.6143866  94.1102409  99.7411728   1.0918447
  93.5729504  99.2496872   0.4705585  93.6808395 100.5941296   1.1574373
   9.9337196   1.0935442  29.3602514  10.8087742   1.0823905  28.9724517
   9.5599896   0.2422288  29.1326118  64.0590477  71.3299036  11.9864583
  63.8361263  71.3585567  11.0560203  63.6502838  72.1130943  12.3549116
 109.4644260  30.4297018   4.3661562 110.2643394  30.8840394   4.1016522
 109.0003014  31.0617924   4.9150491  43.2558155  79.7434807  26.9345045
  43.8950872  79.0655994  27.1536732  43.2582283  80.3288269  27.6918674
  70.8511305  91.9749260   1.8631592  71.2729406  91.1252308   1.7353454
  71.4222956  92.4358559   2.4775994 105.9030151   2.5900730  44.2110729
 106.7186928   2.2090249  43.8859510 105.9595394   3.5155627  43.9733648
  89.1217709  12.1919835  18.0054307  89.7038078  12.6036417  18.6441767
  88.9346313  12.8839445  17.3710799  75.2552080  85.2466393  16.0978949
  75.4094505  85.8400345  15.3628290  74.4362211  84.8021030  15.8790779
  21.4269471  65.2510691  65.2033472  20.8774805  64.5007324  64.9768305
  21.1455464  65.9432793  64.6051073  65.9854174  72.2475290  45.1953650
  65.8464479  73.0384588  44.6744537  66.9130945  72.0431089  45.0776052
 111.8466187  20.2407813  85.8696365 112.4599457  19.5078194  85.8165073
 111.0782814  19.9460816  85.3807163 111.7011929 104.0115452   9.3180418
 111.8117142 103.1374073   9.6920693 111.8883133 104.6077347  10.0431454
  31.5262771  40.8354998  62.9358912  32.2172475  40.4633236  62.3879099
  30.8629227  41.1351681  62.3142862  45.6959581  95.8270264  32.0832348
  45.5438566  94.9134254  32.3249221  46.3253689  96.1444855  32.7307677
  52.2077274 102.0285416  50.9998035  53.0505991 102.4185944  50.7681656
  51.7564344 101.9189167  50.1628160 101.2315979   2.8292148  -0.2643791
 100.7245961   3.0405395   0.5195412 102.1213117   3.1162088  -0.0587669
  86.7590332   3.9244914  11.5951145  86.1891174   3.4351808  11.0018158
  87.0705223   4.6636331  11.0727346  89.2054462  18.7255454  43.5420656
  90.1581001  18.8147044  43.5150862  88.9109802  19.0420485  42.6880455
   3.2308117  17.7565396   9.3850583   3.6958414  17.8014052  10.2205014
   2.6965287  16.9650316   9.4505417  13.4412825  12.9500842  28.3070040
  12.7476442  13.5654581  28.5445189  14.2509913  13.4496295  28.4121585
  38.7003326  45.7002831  72.3200369  39.3556571  45.8362484  73.0043602
  38.3547044  46.5750122  72.1422100  18.0598485  14.4192803  45.6396437
  17.4198520  13.7204301  45.5045605  18.9058149  14.0059316  45.4672575
  22.2205853   6.3554347   8.1369334  21.4582348   6.3368642   7.5583923
  22.1545768   7.1942675   8.5932600  47.8413582  29.3399978  70.5257463
  48.2902908  28.8238192  71.1952591  47.9179144  30.2445364  70.8293581
  50.0135040  39.4518709  84.7167587  49.5494366  40.2155972  85.0596809
  50.5387592  39.7953582  83.9940262  72.5694370  99.2467785  16.9325805
  72.6265526  98.2923985  16.8864357  72.9838371  99.4715118  17.7656472
  81.6009331 104.9179554  20.2696681  82.0378685 105.7668495  20.3381872
  81.3237762 104.7183704  21.1638594  21.6329598  25.5710673  70.0591040
  22.5141954  25.1974583  70.0675869  21.0571074  24.8228621  69.9015808
 112.6640537 100.0091076   7.8729326 112.5872808 100.2296543   6.9446576
 111.9595669  99.3800926   8.0287230   8.3544189  29.1460466   1.4614844
   7.5858581  29.1110444   0.8919917   8.3575106  28.3013916   1.9117956
  91.8967533 102.9478073  11.7281663  91.9724369 103.6188698  11.0497999
  92.1651649 102.1376991  11.2946844  98.3431625  81.8851662  30.1537967
  98.7082005  82.4848843  29.5031691  97.5037766  81.6121006  29.7835159
   6.7238605  29.9702597  45.6801748   6.3954568  30.6819177  46.2296534
   7.5538474  30.2982998  45.3341341 100.9977531  99.8805714  49.5738602
 100.3979015  99.7103119  50.3000975 101.5333176 100.6154346  49.8728228
  82.3003197  82.4714088  52.7370834  81.6261673  81.9852734  53.2118750
  82.3213005  82.0668793  51.8698168  32.7597666  10.0180995  54.3886471
  33.0179548  10.6538033  53.7212276  32.0527577  10.4489374  54.8690081
  95.3427410 103.9293861  20.2921891  95.1241207 104.8141861  19.9996746
  94.5150566 103.5721684  20.6140113  10.6144381  19.8744655   7.8432220
  11.1830306  20.3421474   7.2314966   9.7339058  19.9859846   7.4848115
  65.4351473  89.9904156  86.6539288  65.3251743  89.1151047  87.0253754
  66.3776684  90.1519203  86.6963577  67.8202820   9.9873054  29.4674492
  67.1819162   9.5498443  30.0307870  67.8148556  10.8981550  29.7616529
  84.5075703 104.7719193   8.1786013  83.5760021 104.9648952   8.0728883
  84.9101448 105.0831604   7.3678637  21.8310547   8.9858246   9.3943483
  22.5468278   9.0086871  10.0294697  21.0644865   8.7284267   9.9065524
  49.2791462  48.2854700  92.1607304  49.6980572  48.5747099  91.3501263
  48.5342598  47.7589083  91.8707180  18.4689581  22.5046635  12.8775144
  17.9192102  23.1720996  13.2880473  18.9697862  22.9809976  12.2153151
  88.4087563  52.5166559  46.9772720  88.1528568  51.8558645  46.3337660
  88.8039112  52.0157003  47.6908064  25.7132196  13.4675646  14.0032148
  25.1837063  13.7309456  13.2505667  25.1612544  13.6561823  14.7621536
   9.2249644  67.3385906  88.8915539   8.3605289  67.5665522  88.5494804
   9.6851569  68.1753969  88.9564800  89.2574978  34.8430204  13.2684255
  89.6554661  35.6062722  13.6871064  89.9479580  34.4906664  12.7068722
   3.8097394   3.2428819   9.4316769   3.8423970   2.3083134   9.6359974
   3.0895337   3.5795721   9.9647582   3.2728693  29.0990853  59.2353153
   2.3424217  29.2295074  59.0523148   3.7045398  29.2380500  58.3923531
  62.7728081  99.5741749  39.9741411  63.3054972 100.3694057  39.9647951
  62.9795980  99.1571903  40.8105612  42.8115177  14.0068030   2.4547908
  42.6936197  13.4879267   3.2504663  42.6717806  14.9111295   2.7356812
  99.0690708  30.4629111   7.2978914 100.0230598  30.3890944   7.2715980
  98.8959789  31.3899970   7.1342409  27.6147914  63.2016420  77.9656887
  28.1764364  62.4265385  77.9679585  27.8245759  63.6518240  78.7839556
  57.8637791  50.1889753  24.8063421  58.6848450  50.5534840  24.4758630
  57.6262474  49.5163679  24.1680598  98.8764572  57.8791857  42.4219990
  99.1535854  58.6649370  41.9508123  98.3033276  58.2055473  43.1157112
 108.0596924  32.5811887  22.4871111 108.3415031  32.2436237  23.3373284
 108.3012581  33.5072327  22.5050664 106.9676971 101.7807961   5.8313274
 107.0237446 102.4817944   6.4807039 107.8736401 101.4991570   5.7041186
  29.5309734  58.0101919  73.8696051  29.3531227  57.6682854  72.9934168
  30.4010653  58.4032536  73.8012648  15.8434415  53.1777811  82.8000164
  15.0847304  53.6983442  83.0638409  16.4996755  53.8248730  82.5414371
  78.8812733 104.1026497   6.7014742  78.0443001 104.5124340   6.9200748
  79.2847872 104.7021770   6.0738063  83.5606575  22.9306960   5.4173070
  84.3339634  22.7526426   5.9525853  83.7104511  23.8077378   5.0643331
  18.9168334  32.4728155  30.1397491  18.5261798  33.1563663  30.6841564
  18.3108735  32.3762107  29.4050980  80.3929806  50.0666332   2.5234339
  79.4809914  50.3413153   2.6185867  80.3402710  49.1839790   2.1568570
  18.6633778  13.6795545  54.9392605  19.3725550  14.0592849  55.4580164
  17.8827691  13.7928784  55.4815149  16.8853581  78.3498716  87.7678299
  16.8666661  78.0045080  88.6603546  17.7229154  78.0516863  87.4131203
  74.6717978  98.0089664  36.3834691  74.8809195  97.4314976  35.6492782
  73.7261963  97.9160976  36.4994359  42.0935249  38.1677175  89.4087315
  42.9453087  37.7841711  89.1999435  42.1984434  38.5166192  90.2938747
 109.6180725 100.2834225   3.0506453 110.4681492  99.9589348   2.7534917
 109.4147873 101.0037804   2.4539901   6.0541928  72.9366875  78.1695604
   6.4974564  72.0934486  78.2628250   6.7512459  73.5856152  78.2656765
   7.4466695  -0.1443702  12.1766675   8.3402051  -0.2303248  12.5089836
   7.4649515   0.6501359  11.6431284   2.3677072   3.8253722  22.0383883
   2.4198897   3.7827227  21.0835648   2.0954153   2.9466569  22.3028660
  30.5805802  47.3091602  69.7423315  30.9152579  48.1941938  69.5976305
  31.3287640  46.7384958  69.5668411  54.7840023  79.4020319  18.3286488
  54.8379660  79.3711233  17.3734701  55.6916237  79.3237972  18.6224759
  50.7662106   2.7990720  14.4067359  51.3240099   2.2724846  14.9792707
  50.2183723   2.1594590  13.9517581 111.6020012  13.3312857  36.8764329
 112.4967766  13.0155313  36.7503262 111.5838528  14.1814399  36.4369559
  82.3570156  67.7316093  84.7347832  82.1958733  68.3758497  84.0454197
  82.0042706  68.1357908  85.5275249  63.9590263  99.7821140  54.7580671
  63.1628561  99.6026802  55.2582169  63.6959648  99.6781254  53.8436174
  26.4491224  71.1404514  90.0171375  26.7937517  70.3327942  90.3981304
  25.8099294  70.8455896  89.3685150  10.2815604  40.6678343  84.8045063
   9.9842012  39.9911046  84.1963577   9.9324518  40.3969574  85.6536102
   3.1029043  18.0407596  21.3062978   2.7699226  18.7183499  21.8947077
   3.9983648  17.8827786  21.6053367  94.2548943  85.3383732  18.8025796
  94.2078018  84.4852924  19.2341638  94.0491104  85.9680367  19.4935274
  84.3232536  95.7894897   1.7180076  83.7511444  96.5393543   1.8811941
  84.8667812  95.7275105   2.5034788  82.7730560   8.1359076   3.0353305
  83.0215359   8.9915645   3.3851063  83.4115887   7.5292999   3.4102243
   3.8199914  78.1629133  27.6605082   4.2334902  78.0240202  28.5125422
   3.3912721  77.3300266  27.4637222  93.7274170   9.5561284  -0.0696704
  94.5275688   9.6997064   0.4356736  93.0402470   9.4654173   0.5904818
   0.2252604  17.7582872  27.7910352   1.0195785  17.3653936  27.4291992
  -0.2352187  17.0288229  28.2058501  95.6887913  23.3000016  41.9963312
  96.2079144  23.0809212  42.7701187  95.4654598  24.2236447  42.1113920
  91.2055588  50.5855703  15.7365072  91.8091297  50.4299259  16.4629447
  90.9927940  49.7111654  15.4103494  75.9806395 105.8347702  24.7625756
  76.2491274 105.8058929  25.6808949  75.1348305 105.3869247  24.7461271
  30.0062394  89.5663452  81.9847679  30.0048566  90.3740597  82.4983978
  29.8244524  89.8516083  81.0893250  53.2496548  88.0170536  33.7082648
  53.6531401  88.6942005  33.1652117  52.8457737  87.4166393  33.0816793
  77.2309113 102.9574013  13.5536587  76.4106560 102.7003670  13.9747810
  76.9808388 103.6552715  12.9481244 108.7807560  96.4859962  11.6238737
 108.4629917  96.9447231  10.8461690 109.6489048  96.8566227  11.7825544
  27.6417208  46.2224483  53.1061554  27.8210902  45.2981138  52.9339218
  28.5069156  46.6203785  53.2027149   4.6132845  17.5719047  12.0515943
   5.2304286  18.2445097  12.3396349   3.7769726  17.8334153  12.4368572
  10.9566879  58.0587053  39.7906375  10.3616142  58.0413628  39.0410924
  11.8164921  58.2373095  39.4097614  40.5849743  69.6545887  57.2858858
  39.7231603  69.5167875  57.6789713  40.5108833  69.2790270  56.4085579
  77.9241800  80.3367424  31.0161972  78.5248470  80.6739426  31.6808248
  77.2742558  81.0308552  30.9064674  25.3095794  58.4232616  67.4892807
  25.7121515  57.7822304  66.9034100  26.0480690  58.9091301  67.8564310
  87.6134014  54.6442795  77.3364162  87.8432274  55.5215168  77.6427889
  86.7186356  54.5084810  77.6481533  83.3639717  10.5269229   3.9856228
  84.1513634  10.8550310   4.4198895  82.6915836  10.5402553   4.6667629
  30.8327317  65.6460333  87.3498440  30.2357078  64.9992514  86.9737244
  31.5345240  65.1254511  87.7406311  47.2277737  36.8057609  49.4636679
  47.1782541  37.7502012  49.6113586  47.1280384  36.7058325  48.5169363
   6.2732172  41.2237978  40.3502750   5.9333205  41.5238571  41.1932850
   6.4162588  40.2849674  40.4701614 102.3367310   5.2408350  23.5868549
 102.6527786   4.3479699  23.4485221 101.4031029   5.1991963  23.3798695
 112.1456424 101.9695282  18.7045097 111.7855776 101.1487484  19.0405297
 112.6471564 102.3285198  19.4365191  24.8526478  33.2945323  51.2325382
  24.7011614  33.2813311  52.1775818  25.0593877  34.2082071  51.0358429
  81.3926411  74.2494822  28.6012840  81.6975689  73.8381863  29.4100404
  80.9584618  73.5434675  28.1224656  29.6652460  11.3773382  82.1182823
  29.4925046  10.8333218  82.8866768  30.2954078  12.0299459  82.4236202
  94.7065830 102.9508495  40.6792068  94.6221542 102.0564747  41.0096598
  93.8163471 103.1991768  40.4301071   7.0305014  23.1041503  24.7109175
   7.4996835  22.5163889  24.1187739   7.4302441  23.9613771  24.5639396
  84.4965363  11.8649578  44.7492933  84.8064423  12.7221692  45.0414991
  83.8528252  12.0621657  44.0688658  49.6282768  45.5922031  76.1258936
  48.8373280  45.5096674  76.6586399  49.3044472  45.7041740  75.2321196
  89.9128056  31.9816709  33.9517474  89.1421413  32.5003791  33.7209821
  90.3255749  31.7794251  33.1121349 106.8921661  38.8757515  28.7734222
 106.5861797  38.7870145  27.8707981 106.0943222  38.8420486  29.3011951
  88.3263969  20.6791449   9.6557617  87.6815319  20.2500248  10.2181125
  88.8984203  19.9698031   9.3627483  34.7271442  38.0180001  78.7609243
  34.7243500  38.9747047  78.7915945  34.0188980  37.7956676  78.1566191
   9.7368115  15.2467239  46.6601419  10.2456319  15.2291107  47.4707127
   9.1952443  14.4584739  46.7001343  99.8381424  23.0756211  38.3577299
  99.2482471  22.8293586  39.0702009 100.5932903  23.4672976  38.7965584
  87.0842648 102.2012520  20.2285290  88.0120087 101.9734669  20.2888894
  86.6918373 101.8171501  21.0125542  70.1575041  81.4854145  12.0051241
  69.7632170  80.7945824  12.5375986  70.8760309  81.0521126  11.5444648
   9.9038905  42.7762604  18.9415896  10.7734811  42.9927301  19.2780185
   9.9354351  43.0258131  18.0180311  58.9738894  94.0099525  14.5406616
  58.6124516  94.8779392  14.3611991  59.9191332  94.1175938  14.4350421
  39.5753527  66.2421083  89.4662094  39.8157167  67.1455908  89.6715736
  40.3976250  65.8297729  89.2014790  11.7492688  44.1673946  15.2934301
  12.4182844  43.6709881  14.8220170  11.1729920  43.4995842  15.6651366
  86.1172009  30.7758641  19.4952846  85.8313179  31.5973496  19.8948610
  85.4417896  30.5771828  18.8467598  36.8410516  63.0336809  91.5645218
  36.3499761  62.9602814  90.7461834  37.6502943  62.5487900  91.4025593
  80.3777409 103.4863949  18.0008101  79.4978333 103.2314587  18.2782936
  80.8476830 103.6530209  18.8178921  24.9261642  38.5634923  90.3862381
  24.5438313  37.9026270  90.9635735  24.5279384  39.3870211  90.6680965
  62.6878309  59.4627285  83.4853458  63.2034349  60.2683163  83.4477711
  61.9583893  59.6170044  82.8850555  13.5061526  24.1399002  88.0187225
  12.9916465  24.8079991  88.4716702  12.9944134  23.9327908  87.2367668
  34.5385408 103.6958885  17.5197124  35.1133752 103.2808495  16.8766415
  33.9043736 104.1838646  16.9944072  35.3635383  51.7504501  81.9923782
  36.1531043  52.2439146  82.2144508  35.3839588  51.6827631  81.0377979
   6.8259233  91.6117191  11.4401627   7.5050169  90.9401608  11.5039492
   6.0291719  91.1761856  11.7430294  81.7555618 101.7427731  59.8642778
  81.6976166 101.2305546  59.0577412  81.3943481 101.1682796  60.5393410
  37.0653367  68.8870001  86.8649006  37.2651243  69.0959692  87.7773952
  36.7963696  69.7217464  86.4813805 100.0970936  49.2380953  12.1505499
  99.3891811  49.2617464  11.5067053 100.6156445  50.0210381  11.9652486
  52.3885012  10.4506290  24.9133253  52.6100969   9.5220119  24.9826002
  52.4157429  10.7712650  25.8148146  72.9534292  81.8552113  40.8277464
  72.4440432  81.8151665  41.6371632  73.4968615  82.6371384  40.9251833
  19.4359493  71.8577194  80.5851555  19.6286750  70.9360504  80.7572556
  18.8733888  72.1245813  81.3121605  30.9234929  86.1881351  87.5573540
  31.3479471  86.1557007  86.7000198  31.4005089  85.5477428  88.0851650
  20.4431057  49.6312094  86.4349651  21.3024521  50.0070477  86.6260147
  19.8233688  50.2177238  86.8687344  43.1755733   1.5594213  27.8248811
  42.8352833   2.4466839  27.7100015  42.7606297   1.0516074  27.1276164
  31.6572046  62.3324156  86.1739254  31.3156748  61.5610600  85.7215977
  32.5431991  62.0831728  86.4368343  26.2243247  38.4903145  34.1557121
  25.8221793  39.3487620  34.2882919  26.4593410  38.1973696  35.0361562
   4.3171191 103.3546734  34.4772339   4.2454213 102.4426460  34.7588444
   5.1269811 103.3851051  33.9678931 110.6981468  21.9875503   3.3969021
 110.5336475  22.3587561   4.2637220 110.0729084  21.2665963   3.3225018
  14.5169210  20.1493049  14.6617770  13.8166094  20.2659392  15.3037977
  15.2572525  20.6362343  15.0237727  67.3377466 102.0642757   5.3993207
  67.2050285 103.0060291   5.2910221  67.6511955 101.9684315   6.2986505
  35.0827837  54.2083931  72.9445648  34.9350524  54.9042892  72.3041487
  36.0254598  54.0461636  72.9088163  77.3941994  72.6143837   8.7064916
  78.1128740  73.0171108   8.2190973  77.6009321  71.6797781   8.7094587
  37.2387123  54.9661922  68.8431740  37.3147321  54.0241146  68.6917067
  36.4683080  55.2284050  68.3392334  68.8761044  98.1628799   4.0871853
  69.3431711  97.5136757   3.5612422  68.7029457  97.7189064   4.9173298
 111.4700603 105.1654911  34.5773244 110.5767727 104.8302937  34.5004606
 112.0055676 104.3871212  34.7309589  81.6084335 106.0195555   0.1918680
  82.3364137 105.6765823  -0.3264429  82.0279978 106.4879461   0.9135384
  87.6112652  37.6866698  19.4106150  86.9792747  37.5937366  18.6977482
  87.0807934  37.6543403  20.2067232  25.9999800  44.7248316  84.3175983
  26.0933590  44.5734787  83.3770657  25.8724594  45.6702089  84.3965626
 108.0675411  91.2046242  23.6111498 107.9503345  92.1517849  23.5378098
 107.2129536  90.8786774  23.8934183  86.1538219  85.7424259  14.6601009
  86.3826942  86.5230083  14.1555822  86.2595081  86.0081482  15.5735850
  79.8187780  99.9831867  18.5495877  80.6578541  99.6909428  18.9056563
  80.0505257 100.6657314  17.9197836  16.6823447  23.7928891  72.3693800
  16.9495857  24.6898389  72.1686411  17.0077288  23.2754779  71.6327381
  92.6792336   2.1039905  33.2905364  92.2771454   2.5637642  34.0275359
  92.0093346   1.4850160  33.0001307   1.2950308  37.1151519  35.2925873
   1.7893202  36.7926717  34.5389867   0.5467016  36.5220928  35.3597569
  79.6256876  85.8966923  12.8699672  79.9682426  86.3070488  12.0759332
  79.8031902  86.5319824  13.5635984  85.0505924  14.2096031  20.0563145
  84.9846649  13.5579979  19.3582487  85.9541130  14.5219135  20.0078726
  72.7996206 103.0436611  13.2012582  73.0793619 103.4413624  12.3767519
  72.7701950 102.1049118  13.0165291 108.7077808 103.7201500   7.6960456
 108.7204647 103.1859779   8.4902304 109.6312714 103.8638783   7.4893034
  19.0023530  92.3484993   5.9801430  19.6689141  92.0452881   5.3637123
  19.2795646  93.2336998   6.2163949  23.6068010  80.9827995  73.2363605
  23.2545972  81.7423916  73.7002611  23.5166073  81.2050915  72.3097086
 108.6128902  94.0424633  23.4642053 109.1151619  93.7995052  24.2419744
 108.3207703  94.9373531  23.6376309 105.1274967  15.7601976  59.6982336
 104.8301697  14.9636793  60.1379967 104.9006653  15.6247556  58.7782192
  55.1519251  55.9287739  85.2397728  55.5975771  56.6378450  85.7032871
  54.3773031  56.3417578  84.8581505  43.9839888  29.1912627  71.5678167
  44.2176390  29.7930551  70.8610773  44.7672939  29.1504860  72.1164560
  50.3821278 101.6758347  23.4348726  50.4707813 102.4346924  24.0115118
  49.4615316 101.4245319  23.5095453  36.1774683  58.2719088  86.2979126
  35.2672720  58.0438995  86.1087418  36.5597343  57.4650669  86.6430378
 100.9369659  16.0946047  32.6488996 100.8296013  16.4802730  31.7794371
 101.8052673  16.3808537  32.9323387  56.9878292  52.1659184  89.1561890
  57.6883221  52.2903252  89.7965527  56.4312124  52.9380846  89.2570400
  40.5243015  39.4198084  85.8358669  41.3148308  38.8802624  85.8223915
  40.3890657  39.6694136  84.9217319  68.1515932 105.8530426  46.6371536
  67.3740673 105.6943417  47.1724081  67.8479481 105.7453060  45.7358074
  40.4868412  53.5596609  89.5081711  40.5765295  53.3379364  90.4350090
  41.3083172  53.9979792  89.2861748  65.6096554  76.5964699  66.5071106
  65.5427265  77.4449730  66.9450569  66.0496998  76.7884016  65.6790066
  73.0025959  96.3391685  87.7634430  73.2530022  97.2107410  87.4570084
  73.6399031  95.7507324  87.3587132  39.5272064  14.3550503   8.8092995
  40.3883648  13.9764583   8.6323774  39.6712399  14.9409771   9.5523864
  13.2164395   7.7310866  21.8511271  13.4006250   8.5256398  22.3521185
  13.0621862   7.0594305  22.5154424  81.5905762  60.9809399  90.4034233
  81.7056847  60.0393009  90.5310822  82.2043705  61.2046003  89.7038078
  28.3804965   3.4398672  13.6064529  28.4719205   2.4972093  13.4676361
  27.9106641   3.5151997  14.4370031  32.5992990  64.6806955  88.9579010
  33.2842922  65.3308392  89.1138649  32.7859116  63.9812231  89.5841122
  27.8088498  67.9398346  88.0488300  28.1083536  67.6017714  88.8927746
  27.6533341  67.1578693  87.5191402  98.9713192  85.6074524  30.6875372
  99.2921829  85.2514267  29.8589706  99.7010612  86.1281300  31.0230947
  78.4296513  31.9600749   8.4127909  78.0634689  31.6798711   7.5739676
  78.3657122  32.9149723   8.3950365  50.4667187  61.2456036  85.8048058
  50.6516743  62.1827793  85.8658504  50.4775429  60.9397650  86.7117691
  19.0556490  91.6163826  18.6541796  18.2276821  92.0660305  18.4852934
  19.3941391  92.0283794  19.4491112  37.2027659  20.8602929  80.7295418
  36.8942213  21.5742564  80.1716137  37.7122355  21.2941837  81.4139462
 108.3624268   0.1995740  34.2107701 108.1163692  -0.1953966  35.0472426
 107.8846455   1.0286843  34.1876411  82.2714043  85.3164387  33.7661767
  82.9418945  84.8014450  33.3173394  81.9102383  85.8844948  33.0856609
  68.5925007  54.1589975  86.9304943  68.2664490  54.5182323  87.7556419
  69.2454243  53.5101891  87.1931267  76.9199610  94.9638844  32.3462081
  77.7953815  95.1449680  32.0040369  76.3821936  94.8246288  31.5666938
  59.9686766 103.5956001  27.6438618  60.7463074 103.8791466  27.1631050
  59.5955610 104.4044495  27.9942632  70.3863573 101.7314816  31.4610720
  70.0890923 101.6366577  30.5561543  69.6979523 101.3201141  31.9836688
  56.1324549   1.1245242  24.4806933  55.3111887   1.0354690  23.9971423
  55.9580421   1.8109535  25.1246095  56.6552544  78.3768225  32.1527052
  56.9987774  79.1626310  32.5778222  55.7480431  78.3194542  32.4525547
  16.6997683  23.1517434   2.0534515  16.2276781  23.4018469   2.8476885
  17.4762166  22.6910138   2.3713943  78.9451885  83.4083271  10.6053662
  78.5248709  83.1736755  11.4327133  79.3556452  82.5968456  10.3066325
  17.6261115  98.9677906  50.4895115  18.2793939  99.6384239  50.6887770
  17.8540289  98.6650944  49.6105003  31.6402411  21.6252661  44.8549366
  32.0940232  20.8374262  44.5555687  30.9498763  21.2992406  45.4322863
  10.7933211  97.4834538  82.6625443  10.3089654  98.2730865  82.9036331
  11.2492919  97.7194595  81.8546867 110.8000755  21.1881995  15.9013891
 109.8743916  21.2837839  15.6773317 111.1421299  20.5757403  15.2501428
 103.9089966   8.5688078   2.2865501 103.5726738   7.8547019   2.8280014
 103.2832050   8.6379039   1.5655468  94.1746140 104.7102165   9.0919411
  95.0822639 104.4086552   9.1301966  93.8556385 104.4027424   8.2434452
  60.0654364  75.0252151  91.2629986  59.9055433  75.8114767  91.7849731
  59.8312950  75.2787399  90.3701782 108.0585289  49.5015526  91.2445450
 108.1457043  48.5749292  91.4681625 108.6974812  49.9439383  91.8033504
  35.6421828  27.1268344  12.7414203  35.2937388  26.3289022  12.3437738
  35.6322312  26.9497442  13.6820436  36.4223099  14.1795993  27.9532766
  35.8726907  14.3045473  28.7269306  36.6311002  15.0671542  27.6619291
  44.4954777  85.6267452  17.7008343  44.1023874  85.0068665  17.0864511
  43.7605143  85.9403515  18.2278168  34.4425511  64.2352009  67.2595596
  34.6688104  64.4298697  66.3500834  35.2093673  63.7777710  67.6044989
  56.7931509  62.2993422  81.7288303  57.1897078  62.7523851  80.9846973
  55.8562469  62.2915983  81.5329170  25.4051971  84.4678402   2.7296215
  25.5240226  84.1625118   3.6290050  26.1541128  84.1086864   2.2538424
  57.4626541  82.7300072  30.1705337  56.5558958  82.6496124  29.8746324
  57.8224897  83.4466839  29.6479225  21.3315058  21.9333816   7.6023442
  21.4223528  22.0255828   6.6539359  22.2027540  22.1299100   7.9466367
  42.3093033  18.5743535  16.9879663  41.4605284  18.2036471  16.7463183
  42.2850370  19.4692385  16.6491067  48.3773279  83.7164783  86.5264225
  47.7990294  84.4762611  86.4591122  48.8342285  83.6880302  85.6857872
  55.0604010  21.7521262  48.7706327  54.3974161  22.1778488  48.2270908
  54.5587778  21.2115932  49.3809080  31.3220787  47.9751825  29.9906468
  31.5243769  48.0274916  30.9247613  30.9247208  47.1114588  29.8796391
  24.6105075  46.6688681   2.1028212  25.2956867  46.1088753   1.7379008
  23.8321877  46.4634705   1.5848824  18.1727970  12.2014272  14.0308142
  18.1543005  11.4633787  14.6400547  17.4364090  12.7513373  14.2983258
  15.8074677  47.7987576  12.5902963  15.4874182  47.3280191  11.8207479
  15.0812304  47.7619600  13.2127571  40.1484060  89.0446854  74.6185493
  40.8153868  89.5782280  74.1864681  39.5842838  89.6787262  75.0612640
   9.9006420  44.9631929  69.3968916   8.9579493  45.0984144  69.4932079
  10.1591790  45.5664349  68.7001181  30.0229859  35.2515769   3.2193205
  30.4561138  35.2183867   4.0722740  29.6865320  34.3652964   3.0868986
  34.7035456  67.3983717  65.2837658  34.9861956  67.1879721  66.1737490
  34.6819639  68.3550119  65.2591753  97.1985817  99.5985794  33.4582233
  97.4361229  98.7763977  33.0294776  96.4308357  99.9067116  32.9767013
  39.8107815  87.6727676  30.9374809  39.5355415  87.1559525  31.6946983
  39.0048718  88.0798054  30.6195855  44.4530630   8.3324659   4.4298866
  43.8667345   8.8153785   5.0123352  44.0018463   7.5037301   4.2691597
  95.5484676 104.6262264  12.8196299  96.2917900 105.0351906  12.3764026
  95.3251266 105.2348232  13.5238802  23.4480596  58.5684872  89.4386482
  22.9790044  58.0109119  88.8179016  23.5816741  59.3912172  88.9680195
  47.7048969  52.1846104   1.6242152  47.1620512  52.9460096   1.4197105
  48.6039543  52.4981499   1.5261061  26.5105987  28.7265754  28.8434958
  26.1048818  29.3447399  28.2356286  26.5355444  27.8992724  28.3626842
  15.1746714  16.1562490  32.7649522  14.3388057  16.4348149  32.3908401
  15.3386593  15.2986145  32.3727775  77.9690170   7.9977345  10.4593778
  78.4690094   7.4943662   9.8168349  77.0863628   7.6297545  10.4176223
  83.8753796  17.0076394   7.3891973  83.8661861  17.0498216   6.4329714
  83.4412670  16.1801422   7.5966233  87.0921612  20.7863379  21.9161034
  87.3325443  20.0016975  21.4233661  87.7543831  20.8491731  22.6043916
  51.6574669  24.6441412  16.2264454  51.9791269  24.3609214  15.3705513
  52.3085403  24.3170691  16.8472195  59.9472713  48.9049578  89.8704624
  59.5662880  49.6120214  89.3497562  60.0084496  49.2652082  90.7551670
  10.9892893  10.1070333   0.6944086  11.6843176  10.6774712   1.0226911
  10.9351361   9.4006681   1.3381065  23.7854481  91.8878174  60.7533264
  24.0883923  92.7949619  60.7926130  22.9238343  91.9407368  60.3397417
 100.4105568  38.3384967  13.7137699 100.5197334  37.4384260  14.0206635
  99.4844151  38.4012318  13.4802020  59.0254116  46.5349150  89.0097618
  58.0731583  46.6301966  89.0291119  59.3567085  47.4321651  89.0472984
  15.0577986  24.5423341  24.2707348  14.3799615  24.9014664  24.8432684
  15.6123149  24.0227175  24.8527503  78.6067200  63.7081718  85.2854443
  78.5750961  64.1495085  86.1342430  77.6955509  63.4816504  85.0991821
 101.7870617  97.4826336   5.6738192 102.6143360  97.0125389   5.7780230
 101.7168903  97.6380348   4.7319296  94.5463848  14.3148744  37.1159792
  94.4894981  13.6345446  37.7869081  95.4849339  14.4188499  36.9592857
  13.1013882  35.8481717  26.0784602  13.2503390  36.1669779  26.9686317
  13.2731938  36.6067195  25.5204988  48.5051918  54.8918962  86.3309860
  48.5214758  54.8700285  85.3741741  47.6016712  54.6743107  86.5601921
   2.2346817  34.6473622  29.7713637   2.4622254  35.4967976  29.3933225
   1.3808754  34.7882652  30.1805019 108.3598518  92.0779800  11.6671789
 108.4847164  91.2097645  11.2839746 107.4156189  92.1432400  11.8099463
 100.0272465 101.4793968  36.7500210 100.7404137 101.7916775  36.1931515
  99.7544289 102.2516632  37.2453976   8.8936412 102.5258350   7.1208233
   9.3524432 103.2830429   7.4846500   8.1748706 102.3648548   7.7321219
  84.8712921 103.7808895  19.9893558  85.5161381 103.0877209  20.1305175
  84.2561054 103.6874580  20.7167125   3.1036520   6.0632610  18.8251770
   2.3447086   5.5151302  19.0246499   2.8976491   6.9104886  19.2201459
  65.0290775  53.4194517  87.3111439  65.7589006  53.7009048  87.8628445
  64.2651129  53.8627005  87.6800823  29.2989492  60.4685020  71.4015150
  29.7461295  59.7141743  71.7852497  28.3924532  60.1804447  71.2941933
  65.5567551  68.9669609  75.0374889  66.0761404  68.2940865  74.5973682
  66.1519909  69.7117901  75.1221037  13.5761774  11.9530547   4.7830439
  13.6951303  12.8494930   5.0968599  12.7657485  11.6592062   5.1990837
   4.5260051  43.5999441  49.6552086   4.5940217  43.9539337  48.7684727
   5.2994728  43.0442905  49.7512627  10.8443999  65.0803757  34.2766857
  10.9337246  64.1432142  34.4498539  10.2714181  65.1289988  33.5114670
  86.4270973  11.3740790  32.6373005  86.6248703  11.1924374  31.7185402
  86.0129738  10.5721903  32.9562235  21.0594702   4.1116250  21.7509437
  20.8830929   4.8742366  22.3018956  21.9553661   4.2425761  21.4403725
  37.6578712  56.6591358  40.7644892  37.1492362  57.3940563  40.4218340
  37.1214509  55.8887386  40.5774784  19.5499301  34.0866947   5.3384984
  19.8770964  33.3365011   5.8348858  19.2177331  34.6882963   6.0047966
  39.8387334  23.5269086   0.5671868  40.4426524  23.3634488  -0.1572338
  40.1476237  24.3449514   0.9565815  41.8770647  23.0588007   4.1083470
  42.5760221  22.8693533   4.7342902  42.3244190  23.4630013   3.3648875
  77.8147943  88.9095448  -0.0968853  77.0334180  89.4334219   0.0798496
  77.6316078  88.0619619   0.3084263  40.0762463  39.1193604  77.7683496
  40.5251694  38.3323073  77.4597359  39.2153358  38.8093972  78.0494022
  32.8497458   6.1374426  10.2476418  33.7405109   6.1635333  10.5970573
  32.9252148   6.5142834   9.3709850  59.5103407  29.2585373  24.2346811
  59.7055006  28.7357116  23.4569931  60.2329636  29.0742064  24.8347425
  17.6885509   3.4768268   9.7360581  17.8594506   4.0685594   9.0033394
  18.4410262   2.8853056   9.7467536  93.0648327 100.5985832   6.2611204
  92.4101353 100.1408482   6.7884570  93.7742901  99.9645329   6.1568236
  43.2089520  33.0944848   1.4870501  43.0772829  32.6531339   2.3261593
  42.6388502  33.8622856   1.5282185   5.6846625  37.7234364  23.5798359
   5.9582329  38.3267903  24.2707443   5.2277768  38.2764030  22.9460263
   1.8499698  -0.1848250   6.7919946   1.6667404   0.4640645   7.4714035
   1.2570753   0.0439138   6.0761863  99.5859432  38.7474823  37.9010963
  99.8580360  37.8458261  38.0720234 100.3967571  39.2037868  37.6761580
  20.8160996   6.6075897  22.7357888  20.4845929   7.1018684  21.9861078
  20.7504654   7.2160500  23.4717917  45.5181360   5.2009732   5.5939293
  45.2860785   5.0024390   4.6867549  46.2352371   5.8312762   5.5252719
   8.6680692   6.1772788  31.9571233   8.7295330   6.2734050  31.0067487
   9.3891144   6.7062360  32.2984886  47.2961664  88.9517784  78.3997107
  48.1593323  88.8562775  77.9971552  47.1692801  88.1394672  78.8898897
  13.4825337  47.5179148  14.9159992  13.9926851  47.0507908  15.5776429
  12.7329206  46.9477797  14.7449553  47.5224352  34.1402674  35.3154039
  47.5373459  34.8536181  34.6773291  48.4088373  34.1231513  35.6762791
  67.0565128  66.5232658  84.5100975  66.2805986  66.6658020  83.9680004
  67.0710230  67.2701168  85.1086235   5.4658037   5.7158673   4.7545400
   5.2122855   5.4260415   5.6308740   4.9570668   5.1618493   4.1625243
  63.9199495  97.2861004  50.2734518  63.8430166  97.9832745  50.9248018
  63.1778669  96.7084885  50.4520655  39.4167066  19.4270277  24.0018344
  39.6296263  18.6731386  24.5518780  40.1303053  20.0458527  24.1569567
  25.3274798  22.2558093  14.4790924  25.2499580  21.9082785  13.5905850
  26.2174416  22.6055217  14.5226872  24.6837378  19.4229531  31.9151688
  24.2951822  18.8150692  31.2860942  23.9350414  19.8031366  32.3746729
  36.6076922   3.6175036  10.4032314  36.8870974   2.8730750  10.9361398
  36.0596490   3.2308868   9.7202909  83.8080311  92.0997334  18.1133366
  83.4242535  91.2258434  18.1858289  84.2173386  92.1105576  17.2481298
  49.9992990  48.8383245  86.7390442  50.0370884  47.8974676  86.5670109
  50.7386541  49.2009211  86.2510777  78.9387512   6.0799986  18.8263404
  79.8033285   6.0681820  18.4157300  78.7511539   7.0086402  18.9629543
  23.9543700  28.5088062  17.4291551  24.4742298  28.2518959  18.1907153
  24.5892406  28.5701442  16.7154264  45.6021833  33.1107521  53.1984711
  45.7421923  33.6028934  54.0074348  45.5935240  32.1941614  53.4741831
  49.5679522  20.7009578  14.3765593  49.2424726  19.8935950  13.9784861
  49.4905424  21.3574576  13.6842835  15.4321754  29.5369434  21.0822725
  15.4830039  30.3824949  21.5280199  15.0301600  29.7357607  20.2366424
 107.5815773  29.5553493  18.0863428 107.4707890  30.2449107  18.7409139
 106.8565941  28.9519072  18.2490921  26.9751620   1.1451453  26.8162298
  26.0407829   0.9554373  26.7314982  27.2993970   0.4836816  27.4274325
  96.9598007  68.7154818  29.7033596  97.6768589  68.0816078  29.6868134
  96.6465473  68.7463999  28.7993956   7.0111603  18.7299502   8.2415396
   7.4742198  19.5094252   7.9345751   6.1074322  18.8594222   7.9538858
  89.7762585  36.3382077   1.4410695  90.2128506  35.5131912   1.6531329
  88.9936924  36.3436389   1.9922394 108.2243252   6.3765526  25.0117397
 108.2666397   6.2011462  25.9517789 108.9048862   5.8198762  24.6333432
  13.5150802  40.2855015  17.8417218  14.1931331  40.3477335  18.5144794
  13.5850143  41.1064625  17.3545229  48.7760448  52.2999859  74.4148970
  49.4129515  51.6664219  74.0844727  48.8608313  52.2504997  75.3670502
  14.5368254  39.6538925  54.6334696  14.3799818  40.3972960  54.0512419
  14.2631114  39.9638557  55.4967403  82.6029873  97.3900032   6.3763201
  83.2340240  98.1011105   6.4873874  82.1454430  97.3425102   7.2157460
  53.2999182  18.7901282  18.4377789  53.6313248  17.9152238  18.6401236
  52.3476267  18.6938906  18.4483337  56.2073469  68.4689474  82.2365665
  57.0922089  68.8267136  82.1641350  55.6837845  69.0019131  81.6381836
 109.7013283  20.2209496  21.5169764 108.7928200  20.4503393  21.7125082
 110.2201939  20.8056283  22.0693898  23.7990689  19.6268630   4.3438756
  24.3002319  18.8828886   4.6778965  23.5103631  19.3500960   3.4742317
  20.5106354  18.7219834  53.4102058  20.0442910  19.3407750  52.8482008
  21.0500598  19.2730522  53.9772844  69.1438150 104.4185543  19.5396495
  69.8513222 104.2273998  18.9239144  69.5871592 104.7662067  20.3134823
  11.9327939  48.7287045   4.5392832  12.4567640  49.2873621   5.1133806
  11.1316252  48.5601187   5.0352073   5.6340522  29.2800069   6.2607878
   5.2541280  29.2089462   7.1364820   4.9585536  28.9335155   5.6777978
  36.8951559  41.4425898  91.0832405  36.9533014  41.7821932  90.1902008
  37.3123860  42.1143484  91.6225815  46.0127592  50.9649372  86.1211777
  46.8573618  51.2424183  85.7663822  46.0714102  50.0103426  86.1603928
  52.9292011  51.1665154  31.7460918  53.3116198  50.4202318  32.2076678
  51.9840336  51.0458040  31.8373132   9.4101089  55.8499098   6.5979046
   8.6283684  55.3176641   6.4501482  10.1400852  55.2643299   6.3967443
 110.8146763  58.3852673  32.3341036 110.5045319  58.3978748  31.4286304
 110.3008747  59.0633917  32.7727294  35.3766155   9.8265553   5.0204831
  35.5335188  10.7701862   4.9862140  36.2307143   9.4349462   4.8377565
  44.9025536   3.4007642  35.5025983  45.0576830   4.0199950  36.2158442
  44.6148539   3.9460105  34.7703624 105.8627415  46.9539881  67.4194717
 104.9711609  47.0624256  67.0884705 105.8729649  47.4402809  68.2438755
 103.1815624  91.7198944  53.4766006 104.0829086  91.4238262  53.6036825
 103.0846119  91.7915058  52.5270224  61.0866642  71.3074398  79.4862509
  61.0204935  70.5157661  78.9523029  61.1407900  70.9855986  80.3860950
  22.6667500  36.7067146  24.2045498  23.1335664  36.2477469  24.9028778
  22.9442883  36.2663126  23.4012747  22.2904801   0.3968611  11.5838420
  22.1937847   0.0080127  10.7145441  23.0103159   1.0205447  11.4885199
  16.5852356  68.3350229  40.2815866  16.4683664  68.3808422  41.2305164
  15.7316685  68.0583954  39.9482203  15.6860399   5.4560924  26.5534163
  14.7460353   5.5098748  26.7258430  15.8448327   6.1199903  25.8824039
  25.9605813  48.2098436  51.9781113  26.1085272  47.4128771  52.4872160
  25.0719500  48.4802389  52.2093058   7.3733824  44.0217638  35.4903197
   6.8684232  43.7004280  36.2373090   7.7033877  44.8745394  35.7733321
   2.1580765  11.4767027  54.9637651   1.7798516  10.7367909  55.4388523
   3.0006358  11.6303241  55.3912306  24.6624041   8.4431797   5.1837677
  25.5932903   8.3236879   4.9956059  24.2868543   8.7408996   4.3551797
  40.6471586  86.7758560  91.5266228  40.7328463  87.2660542  92.3443031
  40.5499649  87.4488735  90.8529568  61.4439011  71.9352055  87.0248508
  62.1988344  71.8233490  86.4470959  60.7834482  72.3588800  86.4766407
  98.5196781  98.4922886  61.2211943  98.3287048  98.4056473  62.1551418
  98.4500122  99.4312096  61.0485697   3.6934984  55.0358629  44.2842197
   3.3798411  55.1237249  45.1842928   4.2232886  54.2386818  44.2919445
  98.0490017  86.1504173  11.1439800  97.7388859  86.0801983  12.0468259
  99.0020847  86.1945820  11.2208521  13.8743198  25.6837487  26.4848852
  13.0662096  26.1957812  26.4530993  14.5629179  26.3319588  26.6328287
  40.8413696  16.0322464  19.5909595  41.4079618  15.2729070  19.4545364
  40.1925945  15.9761155  18.8894093 104.3839073  11.6191828  27.0186305
 103.8335705  11.0419214  27.5479054 103.7666225  12.2128057  26.5910721
   1.6330217  19.0572584  58.0061769   1.5180576  18.9983284  58.9546204
   1.5888794  18.1504929  57.7027607 105.6891823  81.5650940   8.3054143
 106.4917946  81.9225597   8.6852360 104.9844837  81.9620991   8.8172889
  25.0633359  11.8444800  20.8668184  25.5176878  12.6696610  21.0367298
  25.7294035  11.1712575  21.0059476  15.7218695  66.2360001  88.9634228
  15.7492745  67.1493530  89.2484951  16.4253509  65.8107996  89.4538879
 103.5388947  11.3488996  17.3391163 103.5348988  10.7287621  18.0682564
 103.3267879  10.8176148  16.5716684   9.7516680  58.9652824   0.7479821
  10.0077820  59.5119333   1.4908208   8.7980527  58.9095402   0.8091579
  34.0962529  28.7900448  39.0351391  33.9912748  28.6749697  39.9795818
  34.5675230  28.0074215  38.7494183  68.6053801  59.0798616  81.0702133
  69.2684889  59.4136667  80.4659843  68.1608343  58.3884192  80.5797863
  22.3224306  64.1520786  88.1005287  22.4567914  64.8682070  88.7212849
  23.0740190  64.2028475  87.5099564  11.6902101  25.2251649   0.9931305
  11.8426394  25.7912397   1.7498042  11.7032444  24.3376637   1.3514684
  65.5700874  76.9415188  87.6091003  66.1592102  77.6916504  87.6895428
  65.3119040  76.7421579  88.5090065  88.7684059  90.4639530  43.3022690
  88.4178543  91.0732174  43.9519930  89.6225643  90.8277035  43.0691624
 104.3735790  24.8600221   2.1886340 104.8173428  25.3207278   2.9007155
 105.0790405  24.4300461   1.7052314  85.0877571  16.5893555  17.5974274
  85.6337357  16.0798264  16.9986629  84.1953182  16.2929332  17.4187934
  95.4852867  15.5345416  10.9933174  96.3830280  15.8651710  10.9619570
  95.0834560  15.8556521  10.1860702  93.9885426  13.7632096  47.4928188
  93.0583191  13.9863265  47.5264597  94.0444565  13.0675459  46.8377161
   1.5656085   7.6307243  88.9122391   1.9455960   7.7229273  89.7859383
   1.5756398   8.5174495  88.5518932  96.1578941  34.6287942  17.6448667
  95.7697296  33.7538910  17.6549637  96.6430187  34.6851063  18.4681070
  85.0708580  86.9662571  34.9533415  84.5340157  87.3629093  34.2672634
  85.4420853  87.7104378  35.4272795  56.2326860  19.2418635  11.2732363
  56.7857552  18.9784276  10.5377460  55.9560871  20.1325727  11.0579205
  29.9798059  36.6554379  72.9129553  29.1355157  36.8795443  72.5215721
  29.7571611  36.2858653  73.7673998  16.5680385  61.4135647  42.1457624
  15.8413959  61.5866375  42.7443171  17.2443891  62.0403147  42.4026012
  40.4155302  33.1083369  88.0721855  41.1813021  32.9878855  88.6337185
  40.4309797  32.3554182  87.4813366  80.3392029  38.7360740   8.9545047
  80.7671356  38.8294768   8.1033969  81.0497761  38.5162902   9.5570183
   4.9253833  13.5808516  42.0715189   4.4309899  12.8322685  42.4053335
   5.7335120  13.5821462  42.5845098 102.6006699   9.4049615  19.1494286
 101.7128849   9.0935141  19.3256950 102.7680206  10.0519228  19.8347521
 110.2888203  70.6584072  25.8316827 109.9128342  70.0639772  25.1824379
 109.7118759  71.4221001  25.8196974  27.3267541  62.1044309  92.1089821
  26.3996491  61.9603123  92.2985424  27.3727879  62.1425266  91.1536490
  37.1587300  23.3819008   0.7177016  38.1128931  23.4516716   0.6870782
  36.9013309  23.9386487   1.4525557  44.8515987  29.6492028  29.3791223
  44.1740131  28.9755583  29.3215609  45.1384163  29.7782874  28.4750748
  69.1343641   8.2097727  19.5513511  68.4290123   7.6214057  19.2820191
  68.7297249   9.0770876  19.5675862  85.5016136 102.0036221   7.0206869
  85.3790569 102.4265862   6.1707956  84.7685528 102.3154736   7.5513470
 101.0597515  67.5475550  34.0933681 101.5712929  67.4474716  34.8962021
 101.6992283  67.8166008  33.4338880 111.2920475   6.6182029  26.0411334
 110.7923031   6.0791421  26.6542459 111.9049931   6.0083109  25.6305838
   4.3099639  26.3845420  23.5085440   3.8538617  26.3003445  24.3458700
   3.6678618  26.7898464  22.9257369  17.2629857  12.9611015  23.9504361
  16.4079189  12.9631495  24.3806529  17.6674628  13.7865090  24.2175174
 105.4861164  87.1161938  35.5284476 106.2759972  86.7229939  35.1573515
 105.0238705  87.4822903  34.7744370  15.0670707  17.0438373  11.3772595
  14.3257701  16.9026268  11.9661272  14.7316992  17.6415920  10.7090926
  95.0581169   8.1103742  81.1040878  95.4939461   8.6884522  81.7302704
  95.6394196   7.3532981  81.0322857  54.9586344  70.7574844  90.3508949
  55.8374119  70.4706860  90.5993366  54.6405125  71.2419891  91.1126614
  43.8909721  78.0178642  73.5601902  44.8352051  77.8610563  73.5523558
  43.8067055  78.9696503  73.6170530 110.7901096  26.5728140  15.1904893
 111.0672283  27.4563503  14.9480057 110.9017944  26.0588193  14.3907595
  26.3108587 106.3612843  18.6001778  26.7024326 106.4247417  17.7290440
  26.1480975 105.4259300  18.7220585  37.8382969   9.2716551  61.6560936
  37.3056030   8.8479447  60.9830856  38.5605907   8.6623508  61.8086433
  54.6512938  42.8113747  26.2908387  55.5116653  42.3960400  26.2317872
  54.0748882  42.1223402  26.6213226  45.8008862 102.1835899  87.8145027
  46.2495136 101.6068840  87.1961308  45.8642578 101.7294788  88.6547375
  55.0962925  44.9817085  90.9037113  55.3529501  44.0727091  90.7485485
  54.3555784  44.9217939  91.5070152  20.1774907  46.3294125   9.1716182
  19.8536587  47.1656466   8.8368481  19.5741010  46.1051989   9.8800540
  16.8254006   7.6057684  11.4750731  16.0976458   8.0734766  11.8847740
  16.7556024   7.8215849  10.5451369  70.5732203  84.8174000  30.0742102
  70.4372501  83.9940929  30.5431533  69.7950029  84.9114990  29.5248890
  26.6272354   9.1785538  29.4448447  27.5532007   8.9463675  29.5149159
  26.5414548   9.5602030  28.5712218  80.2193165 105.0641251   3.8695064
  81.1029339 105.2168751   4.2043486  80.1748943 104.1176319   3.7338120
  45.1900578  48.3669615  53.6010504  45.4510546  48.8639450  52.8257322
  44.2496490  48.2268858  53.4903860 104.5973682  14.1232193  32.4646211
 104.6918106  13.1713521  32.4291086 104.7446251  14.4122815  31.5640712
   3.8465416  72.8511286  21.8105292   4.1629919  73.5039902  22.4349189
   2.8944665  72.8682756  21.9079494  11.8375325  33.9297843  25.1584244
  12.0315945  34.7887015  25.5337000  11.5807819  33.3932161  25.9083605
  23.5524106  34.7011018   1.9349217  22.6833344  34.9556589   2.2449869
  24.1522121  35.0368237   2.6010749  11.2997186  27.2094321  25.1796436
  11.1836028  26.2915778  24.9340963  10.9184134  27.7019000  24.4527912
 109.3008995  23.5065317   1.0362999 109.6663666  22.6219702   1.0217847
 110.0637054  24.0796113   1.1133762  40.8619833  12.6823187  25.5280352
  41.5243435  13.3624029  25.6505108  40.5801821  12.4598718  26.4153552
  86.7417336  96.8750763   6.4511645  86.3404369  97.5698090   6.9732153
  86.0580921  96.6137505   5.8342600  64.2861748  78.6275005  55.9517097
  64.0369415  78.4327507  56.8551397  65.2271557  78.7977457  55.9942341
  15.9046698   0.2327754  12.8330314  16.6415679   0.0368654  12.2543859
  16.3052154   0.3778552  13.6902046  71.6462708 100.4655552  54.0244007
  71.6562223 101.0208988  54.8039722  70.7366991 100.1775837  53.9470625
  43.0099535  10.8738828  24.9595499  43.0876684  10.7665670  24.0115666
  42.2150993  11.3940394  25.0773478  54.4613314  27.1558619  16.7373061
  55.2947664  27.4320459  17.1185434  54.6889877  26.4160204  16.1742413
  77.9011250  36.9560766   9.1018742  78.7889910  37.3077607   9.1669911
  77.3676109  37.7019167   8.8274342  18.9157093  82.8939819  81.3141537
  18.0284107  82.5374222  81.2717533  18.8528156  83.6196232  81.9352245
  57.8839254  55.5483437  91.9254303  58.0549908  54.8464489  91.2974834
  58.7333918  55.9720516  92.0483303  16.0423136  13.9594054  28.1288719
  16.4456177  14.7297859  28.5289860  16.7817867  13.4262371  27.8370786
 103.7140179   1.5907645  18.6227119 103.5471725   2.4928996  18.8957417
 103.2040215   1.0577196  19.2326248  36.1269403  27.0469427  26.1142516
  37.0079780  27.3020434  25.8405161  36.1543703  26.0907650  26.1489749
  39.0011549   7.2164196  37.6258659  39.6705270   6.9029051  38.2340455
  38.2385993   6.6661227  37.8045106  38.4664631  82.8380585  78.9259148
  38.0099082  82.6801205  78.0995655  37.7661920  82.9683590  79.5653439
   9.1464210  16.8739772   9.3303883  10.0164354  17.0383441   8.9666706
   8.5707283  17.4721861   8.8539904  10.5012598   0.4179544  21.3761020
  11.3376607   0.1877279  20.9715486   9.9148168  -0.3005248  21.1392283
   1.3934743  22.1653295  14.4187498   1.6836864  23.0642009  14.5737910
   0.8474231  21.9558740  15.1765013 110.8311272  49.0900564  19.2966342
 110.4224110  48.5774136  19.9940431 110.0970936  49.4999123  18.8389885
  66.1183071  94.1872025  59.9865294  67.0418882  94.3504238  59.7952509
  65.6749964  94.9978256  59.7363234 110.6015968  39.9916768  18.2211494
 111.0000610  40.8103800  17.9258919 111.3432789  39.4415236  18.4730792
  12.1903265  37.7061701  10.0276732  12.3676407  37.5338960  10.9523964
  11.2358499  37.7509809   9.9711180  16.9388044 103.9746380  66.1812401
  17.0524645 104.5684528  66.9233274  17.7160108 103.4162235  66.2001038
   2.1781483  48.9055204  10.8944762   2.3805128  49.5042896  10.1756203
   1.2408755  48.7327290  10.8056247  47.3392773  16.4030361  15.6476772
  46.8101645  16.8716240  15.0021553  48.2437468  16.6044044  15.4076457
  40.5693674  35.9812617   4.5095664  40.2095175  35.2648830   3.9865544
  39.8705149  36.2031031   5.1248896  34.6996737  43.4518909  13.1178248
  35.2012801  42.6788425  12.8589451  34.5811558  43.3551311  14.0627182
  32.5721025  26.8664050   5.5446321  32.1211791  26.3984132   6.2474000
  32.6647162  26.2183619   4.8462817  17.3186898  84.5353413  35.0279093
  16.9340765  84.4570446  35.9009337  18.0103505  83.8738728  35.0106907
   0.5084497  44.7715378  16.2156045   1.2756903  45.1548672  16.6406250
   0.1087362  45.5001307  15.7406199  48.2838154  13.0878520  48.6505318
  47.6280737  13.4839702  48.0766630  47.9557562  12.2037244  48.8146210
 103.1170177  52.6078796  14.5028532 103.0467224  51.9613743  13.8004851
 103.7785149  52.2483826  15.0939691  48.9278886  42.9626863   1.5889916
  49.4700334  43.7007730   1.8674359  48.4748742  43.2796113   0.8075985
  57.5425005  35.4824305   8.7866896  56.7385292  35.4392815   9.3043745
  58.0801392  34.7635150   9.1188675  28.4003210  32.2261834  17.6354218
  27.5875473  31.9243288  17.2298169  28.2019114  33.1120205  17.9389918
  12.5740433  28.6176014  48.9706182  12.3592746  28.9754868  48.1092119
  11.8539751  28.0184102  49.1673517   5.6298339   9.8276585  21.8071151
   6.1908841   9.2234123  22.2932625   4.7637236   9.7188663  22.1998596
  55.3797054  71.7818260  87.8422546  54.8465586  71.7266083  88.6353111
  56.0648060  71.1252737  87.9680252  44.0562868  23.9660740   7.5741547
  45.0043869  24.0403152   7.6828766  43.9421511  23.2490134   6.9504344
 105.9983158  11.0438955  12.3230517 105.4006386  10.2974498  12.3657823
 106.1453438  11.1797249  11.3870144 110.0460625  92.0285416  80.1464272
 110.5539513  91.7753410  80.9172535 109.1854858  92.2637558  80.4932976
  43.8539362  38.0429149   1.7369440  44.3677616  38.1304026   2.5397909
  42.9569864  38.2446146   2.0034550  86.8175602  89.2547512   7.6012516
  87.1575546  88.7775898   8.3581895  87.3955154  90.0130844   7.5168216
  95.8148098  96.2996578  83.0802536  95.9119415  96.2479115  82.1294022
  96.3012123  95.5449963  83.4121227  14.7498643  72.9128695  14.1205966
  15.5113590  72.9512501  14.6992886  15.1203823  72.8916454  13.2382715
  19.8888826  16.1738992  30.4647803  20.2969265  15.4218841  30.0355887
  20.6180143  16.6426468  30.8708286 103.0560112   9.5216691  15.3385055
 102.6997089   9.6970105  14.4675648 102.7265644   8.6509800  15.5612218
  88.7043571  15.0485444  88.0182838  88.1391621  15.0111032  87.2466660
  89.5771408  14.8381484  87.6863194  20.0317025  94.4013500  78.4024954
  19.7534966  93.6705303  77.8504753  20.7078218  94.0297222  78.9690542
  48.4377623  87.3949432  84.8277950  48.9596558  87.3559475  85.6292534
  48.9460230  86.8981743  84.1866112   5.7255971  43.8272190   9.9406832
   5.1969260  43.0304289   9.8975104   5.2615291  44.4529915   9.3845534
  71.7324209  34.0861845  13.8215995  70.8474874  34.4160795  13.9774632
  71.6845036  33.6691356  12.9613626  23.1863689  25.4833984   8.5934258
  22.6099110  25.3866339   7.8354251  22.5990582  25.7147217   9.3129992
  75.5892515  88.6184883  60.5060244  75.1384115  89.2496109  59.9450779
  76.5081120  88.6794853  60.2448511   0.8802154  20.4927301  28.3786225
   1.8018639  20.3367400  28.1725597   0.4195245  19.7460377  27.9959416
  19.0422118  17.8009820  42.2802114  18.4965146  17.1714580  42.7515364
  18.6706090  18.6543989  42.5034189   2.0181239 100.8776283  30.0236845
   2.0594230 100.1480865  29.4053793   2.0696509 101.6600609  29.4747162
  31.2499142  41.2380743   0.6871036  30.7898521  41.3464785  -0.1452565
  32.0810699  41.6962957   0.5628194  43.1726789  20.3593898   8.4680593
  42.5970650  21.0562992   8.1530708  43.3045578  19.7950292   7.7062607
 102.3562717  16.4109528  42.5136852 101.7976761  16.1184287  41.7935228
 102.6120186  15.6044197  42.9612684  63.4954405  31.9769931  10.9782279
  62.9592514  31.7840052  10.2091455  62.8633499  32.0961976  11.6870916
 100.4855251  25.4335976   1.3829842 100.5843830  26.1827278   1.9705746
  99.8198986  25.7096124   0.7529104  32.6675487  22.1535158  18.8383114
  31.8294787  21.9184160  19.2365575  32.6886320  21.6623116  18.0170286
  23.1552577  18.8860762  14.4671154  23.3363891  18.1107664  14.9984503
  22.7897215  19.5195651  15.0846159  70.2022934   4.8498625  71.2186241
  70.2279472   4.4034934  70.3722620  69.8250246   5.7081020  71.0254335
  16.3923454  39.8431897   1.0264399  16.5263188  39.7300076   1.9674355
  17.1028256  39.3454885   0.6217870  13.6803651   0.3317255  37.1741247
  13.4730244   0.5162781  38.0901933  13.4966719  -0.6019368  37.0703793
  56.2603331 102.9773617  88.0405998  57.0796680 103.4625530  88.1381607
  56.3926744 102.1786690  88.5512924  24.8290338  62.2583733   0.3957829
  25.3280344  63.0693243   0.4937252  25.3489484  61.6000728   0.8568367
  36.7983818  19.6993518  10.7809722  36.3197851  19.5698225  11.5997505
  37.1632361  20.5812907  10.8537555  63.6801624  69.4015455  88.8521957
  64.5853424  69.7066545  88.9137363  63.2954550  69.6202755  89.7009468
   7.7687997  48.2231140  16.7026138   7.5904238  48.2207251  17.6430440
   8.3394617  48.9798975  16.5689933 108.1619167  15.1449883  39.5573497
 108.1530952  15.3430510  40.4937935 108.5574341  14.2751968  39.5002222
  56.9971609  81.0330105  88.7668324  56.1451864  80.6269932  88.9265823
  57.4810266  80.9032726  89.5824718  21.8666506  45.1090240  22.0743585
  21.5603256  44.2055798  22.1530008  22.8161907  45.0500107  22.1798277
  20.5295467  12.9283810  23.3644104  19.7827911  13.4321964  23.0407429
  20.1366687  12.1879804  23.8266730 102.6404476  80.4924011  86.7209339
 103.5668373  80.4207611  86.9509411 102.2243118  80.8416843  87.5090218
  56.8953609  65.4797792  80.2119446  56.1073303  65.2531910  80.7057953
  57.4092770  66.0174608  80.8144569  26.6377139  23.7437820  45.0166607
  26.3285065  23.1561089  44.3272686  26.7990780  23.1701994  45.7657909
  31.3710880  56.4470100   3.8913813  31.9863772  55.9978867   3.3117783
  30.9668612  57.1162891   3.3392042  35.5803871  42.4012423  67.5016117
  35.8745766  41.9782686  66.6949034  35.2162862  41.6885424  68.0267048
  25.2025318  49.4551706   5.9513593  24.9984360  49.6857071   6.8576872
  25.0640798  48.5090351   5.9078848 101.3492012  29.6265197  35.3445721
 100.7936764  28.9793634  34.9100471 101.1399364  30.4528260  34.9090743
  67.9007053   5.0247163  89.1287899  67.1060658   5.0090522  89.6622086
  67.7237654   4.4092864  88.4173393  14.0921760  35.4758024  22.5487590
  13.6180544  36.2855268  22.3595881  14.8291183  35.7515192  23.0938530
  34.3424890  36.2824838   0.1654133  34.1226194  35.8738725   1.0026154
  34.8458240  35.6156366  -0.3017155 109.8299694   4.9209866  30.4053688
 110.4638672   4.4651151  29.8516726 110.1549339   4.7932756  31.2966132
  22.9159021  46.6829824  80.3325272  22.0862865  47.1585274  80.3752708
  23.0858660  46.4161921  81.2359428 108.9162254  57.9381847  69.1982079
 108.5934162  57.6619959  68.3404541 108.4875107  58.7793350  69.3559980
  98.6253357  33.5208178  86.1579704  99.3029308  33.7597990  85.5255222
  97.8322792  33.4179926  85.6319332  76.0793304  80.8689976  13.6003721
  75.4507589  80.2753448  13.1896269  75.7044363  81.7404366  13.4727478
  73.8652229  51.6258097   0.4560925  74.2414522  50.8885765   0.9368871
  73.1593704  51.9437170   1.0190665  97.8230572  89.1931725  52.8977728
  98.0504608  89.4680405  53.7860060  98.6624527  89.1421413  52.4405575
  47.6618433  25.2808213  86.1548328  46.7047071  25.2886844  86.1467743
  47.9105425  26.1805177  85.9428692  66.4346981  25.5346322  67.6692295
  66.4276981  26.1994910  66.9806480  66.3309908  26.0300994  68.4816265
  27.3326492  79.4312000  84.2562580  27.4382997  80.3116226  83.8958168
  26.8928576  78.9395952  83.5626125 108.0149555  89.8696136  78.7341785
 107.8009892  89.5559406  79.6128511 108.2627201  90.7855129  78.8605547
  82.8596878  78.2872105  16.3498354  83.7547493  78.2761192  16.0107708
  82.6719666  77.3725176  16.5603793  34.6383452  14.3470013  67.4002743
  35.4404068  13.9402676  67.7281427  33.9685917  14.1057599  68.0401659
 103.0147934   4.5523065  57.1702242 102.6632214   5.4331690  57.2995090
 102.7912331   4.0846997  57.9749584  87.1295261  40.7273436  13.2793176
  86.4898968  41.3466978  13.6307609  87.5431728  41.1957836  12.5542724
  28.7331867  91.1944580   5.5161822  27.8510165  91.5647411   5.5462313
  28.9349341  90.9820080   6.4274406  78.6532450 105.3033829  81.7443180
  78.0803728 105.7034492  82.3985291  78.4368753 104.3714428  81.7743111
  46.2180614  31.8678045  73.8987207  45.2629948  31.8085575  73.8748217
  46.4592028  31.5061283  74.7515249  55.6067657  75.7438326   6.0616416
  55.8454943  76.5854549   5.6731689  55.9398413  75.0921774   5.4446805
  76.9310904  88.1706619  80.1939774  76.9798088  87.7265358  81.0405064
  77.7538776  87.9475021  79.7587252  27.5136471  10.8071339  88.2932758
  28.1469631  10.7539773  89.0090370  27.1150827   9.9374557  88.2610416
  19.2655778  98.7405109  71.8067408  19.4886231  99.3183231  72.5365448
  20.0347900  98.7656498  71.2376070  46.6987848  32.0624352  67.8757763
  47.4502516  32.6114392  68.0996561  47.0818329  31.2902713  67.4595261
  36.0840321  13.1611681  69.8851299  35.4470205  12.7130103  70.4415560
  36.6691732  13.6040509  70.4997015  26.9021034  50.1602983  76.3419008
  27.4297214  50.3715324  75.5716848  26.3988709  49.3882799  76.0831022
  44.4705582  52.0810270   9.0084344  45.1778126  51.7710304   9.5740533
  44.1329241  51.2885904   8.5909736 110.3604412  14.9227977  84.5318031
 109.9741745  14.1368699  84.9182510 110.6260777  15.4533005  85.2829552
  22.7778292  58.2567167  56.7457390  22.3259950  58.0944681  57.5738430
  22.4409938  57.5844860  56.1533928  61.1650515   9.7688591  82.1054077
  61.5209484   9.6794927  81.2213326  61.3881874   8.9445943  82.5378799
  33.5473728  10.1897788  79.5449495  34.2045784   9.4945455  79.5760250
  32.7650809   9.7973639  79.9325848  39.9187160  56.5456200  42.3428869
  39.7036791  56.7664862  43.2490969  39.0698361  56.4151669  41.9202614
  48.5410690  41.7418671  86.4081287  49.3947458  41.8405390  86.8297100
  48.1286669  42.6009464  86.4983368   7.1853280  14.1293216  73.8106585
   7.9377300  13.5381687  73.7849236   7.3897326  14.7467279  74.5129824
  61.4534760  16.1531544  73.8599253  61.4512205  17.1071589  73.7818193
  60.5325031  15.9042704  73.7818527  82.8287697  99.2570400  52.8434134
  83.3469009 100.0602627  52.7922916  83.1422997  98.7229252  52.1135855
   9.0471900  61.7107439  55.3127718   8.7097430  61.0872364  55.9558916
   8.3989090  62.4148512  55.2987719   6.9417739   1.5233214  74.6214199
   6.4071101   0.7346657  74.7130108   6.8953204   1.9451541  75.4793978
  87.4288368  55.2674580   9.3319011  87.3202610  55.0456858   8.4070998
  87.4163818  56.2243700   9.3517900  52.1962643  94.4015980  26.6142893
  52.8276205  94.0129280  27.2197318  52.6183605  94.3420696  25.7572460
  97.6612377  87.9499245   2.2041163  97.8064346  87.3096657   1.5075380
  98.0237675  87.5373173   2.9880556  13.4865189  41.1926031  71.4863205
  14.0751147  41.9445419  71.4201450  14.0408444  40.4822206  71.8092918
 102.0159149  55.9800625   5.6124771 102.5614071  55.4162931   6.1609656
 102.3802280  56.8569183   5.7334560  19.5933902  17.2119832  70.1704264
  18.8388145  17.5572538  70.6475353  19.8110437  17.8970730  69.5383549
  17.5800896  16.4307594  86.3562202  18.4626842  16.7845130  86.2461376
  17.0623338  16.8631256  85.6770897  64.4347858 101.3372040  23.3803225
  65.2702188 101.5978336  22.9925656  63.7818050 101.5672207  22.7193069
   9.9963284  11.4343536  76.3595152  10.6855083  11.8383944  76.8867874
   9.1950434  11.5757823  76.8636703   6.3390011  99.7667885  67.6547241
   7.2772592  99.6284199  67.7841663   6.2706447 100.6696510  67.3442316
  52.8855944  27.7218103  79.4867659  52.9736376  26.8695164  79.0600586
  53.0622530  28.3566427  78.7924957  11.5996563 101.6331482  59.4450283
  12.0238900 101.9963646  60.2224159  12.1667755 100.9094715  59.1787434
  24.6946168  98.6415672  85.2219486  25.3076077  97.9184055  85.0895977
  24.8287153  98.9056683  86.1321735  36.8995905  15.2344930  64.0185976
  37.2085500  14.7018695  64.7514582  35.9855247  15.4248714  64.2294836
   8.8972521   2.0726494  62.2581863   8.7135315   3.0080321  62.1713686
   8.7228942   1.8787901  63.1791925  46.7935228  63.3540821   7.1681094
  46.1928177  64.0153170   7.5118512  46.5333843  63.2466412   6.2532246
  29.1239142  35.0298762  60.9014368  29.2692780  34.1254115  60.6238747
  29.9023533  35.2516580  61.4123964  29.7673488  39.7706532  57.6334238
  29.6242428  39.0177798  57.0598984  28.9843154  39.8054576  58.1828594
 111.5585899  91.0143185  78.3881617 112.0383549  91.8007374  78.1281376
 110.9547710  91.3156128  79.0670156  61.5781736  51.4234447   4.6361214
  60.8752918  52.0268536   4.3951243  62.1352148  51.9288301   5.2281731
  51.2003906  68.4399770   0.8867916  52.0458443  68.5433243   0.4500374
  50.5543323  68.6139880   0.2022823  38.6017227  51.3821554  61.9006252
  39.3775988  51.9327593  61.7953396  38.0634284  51.8468332  62.5413656
  32.6037431  26.8483067  73.4181786  32.7992606  26.5588641  72.5269842
  33.0131030  26.1895704  73.9791822  52.9717827  14.8494601  87.7299404
  52.6391506  14.7830474  88.6250210  52.2913027  14.4460785  87.1909904
  59.4411755  90.4224014  73.6818075  59.2608356  91.0570526  74.3753004
  58.7691975  89.7497082  73.7920809  47.8210211  39.9044061  81.7405033
  47.8753614  39.6246791  82.6543045  47.0825195  39.4116426  81.3826942
  24.1100907  41.3355970  67.9276323  25.0089860  41.5021896  68.2112980
  23.5747719  41.5442848  68.6932135  76.1913538  20.3402972  81.9694328
  75.5356216  20.2726221  81.2754059  75.7802200  20.8926320  82.6343632
  86.7216969 100.0399780   3.2991627  85.8675671  99.6085548   3.3228663
  86.8081665 100.3506851   2.3979303  27.5119305  13.5250235  68.4203577
  26.9313812  13.7559581  69.1455221  28.0731606  14.2924082  68.3091354
  47.9033899   4.6671730  13.5923862  48.6187458   5.2112424  13.9217639
  47.3132992   5.2839118  13.1591964  80.6002722 106.3291956  82.9841805
  81.0567079 105.5765069  83.3601570  79.9650047 105.9463274  82.3791409
  56.4304352  80.3517437  21.9174719  55.9106731  81.1537743  21.8643284
  56.8313646  80.2683926  21.0522914  42.9891300  48.2740355  84.4764137
  43.8046360  47.7771950  84.4105625  42.9028463  48.7064600  83.6268330
  23.0816388  31.6942072  84.4800854  23.3002520  31.2909508  85.3202248
  22.2703505  32.1735048  84.6483612 103.2065964  83.2321644   4.4073755
 103.8404655  82.5549316   4.6435818 103.7382507  83.9442062   4.0515926
  33.3133578  79.2971134  24.0050387  34.2278600  79.0153742  24.0282345
  33.2388663  79.9280071  24.7210383  78.0769920  80.4445553  19.1080105
  77.3035860  80.3606033  18.5503149  78.7903833  80.6397438  18.5003889
  58.3641768  15.9395123  88.3215618  57.4072933  15.9149885  88.3248711
  58.6180639  15.2929878  87.6629448 103.9577103  71.2967968  52.0648384
 104.1051102  71.1570740  51.1294317 103.9602184  70.4169273  52.4417496
  42.4594975 102.1838951  22.5985456  42.1950293 101.3650990  22.1791935
  41.6439915 102.5545120  22.9359221  66.7014647  56.3361025  85.9160137
  67.2523785  55.7376957  86.4206314  66.3564539  56.9490576  86.5652275
  85.8649063  72.5811815  11.6444397  85.8108711  73.0390024  10.8055639
  85.4349518  73.1685734  12.2660041  66.5788174  82.0356464   6.6563928
  65.9762716  81.8041229   5.9495902  66.7497063  82.9688644   6.5293872
  88.0527592  81.0913086   4.1634926  88.7745667  80.5266190   4.4398049
  88.3287334  81.9728470   4.4144017  61.5821552  98.5281849   5.6426358
  60.9086037  99.1213989   5.9752876  61.3039541  97.6608467   5.9368467
  19.3420887 104.4533443  71.4042997  19.9282885 103.8919544  70.8969164
  19.0082037 103.8854504  72.0987463  73.4781933  94.3415737   8.5954553
  72.9894114  94.9585247   8.0507618  74.2924881  94.7993851   8.8041848
  14.1017196   7.4580829   0.0066837  14.8490522   7.6030843   0.5869373
  13.8563773   8.3339994  -0.2913204  71.2227058  11.6095889  65.0714731
  70.5858612  11.3164997  64.4197369  72.0737886  11.4472294  64.6646261
  16.1408913   7.6534760  55.2693605  15.2953386   7.6336718  55.7175589
  16.0945582   6.9349158  54.6386814 112.3752213  46.7978764  69.4901705
 111.5304279  46.9335079  69.0610266 112.7474880  46.0337162  69.0500546
  64.5405579  51.3264942   8.5149223  65.3217316  50.8913469   8.1733853
  64.7545719  52.2590590   8.4875286  84.9784660  53.4804678   5.8589077
  85.8850956  53.3197069   5.5973697  84.4547367  53.1009007   5.1533049
  21.9389224   9.6867335  90.6954670  20.9992290   9.5635569  90.5611706
  22.2724104   8.8077235  90.8753490  65.6129837  55.4403400   1.9897743
  65.8957052  55.6875038   1.1093125  64.8661661  56.0111332   2.1705854
  52.7785683  23.5156918  91.0970306  52.8637934  23.0200744  90.2825737
  53.6486053  23.4754086  91.4940739  45.7789373  85.0084591  14.9030077
  45.1241207  84.8066616  15.5713856  45.3135729  84.9053097  14.0729320
  83.4751892  90.1995468  28.0115390  82.5873089  90.4583073  27.7646613
  84.0205574  90.4858303  27.2788429  79.6995592  86.6480732  20.7698035
  79.3587923  85.7539654  20.7957053  80.4241085  86.6102600  20.1454353
  54.8801994  88.1886959  39.5348930  54.4895029  87.5977135  38.8912177
  54.7827435  87.7313805  40.3701115  99.9041326  80.8383034   0.3197750
 100.6136711  80.7561300  -0.3174415 100.3207214  81.2150763   1.0948452
  37.7152562  18.9481878  91.0048962  37.0535827  18.3586216  90.6431866
  37.2166967  19.5749521  91.5291405  65.5083418  60.6190825  91.3744354
  65.1276731  61.4280748  91.7162800  65.1711607  59.9334145  91.9509792
   2.4992540  13.9715362   8.2110816   1.9447353  13.9510071   7.4311334
   2.1030363  14.6407521   8.7691087  65.1018906  34.7003412  71.8620729
  65.0475550  35.5755210  72.2459221  64.8244524  34.8195434  70.9537506
  88.5627270  56.6505814   2.3965797  87.8108025  56.1138678   2.6471397
  89.2141342  56.0209179   2.0876649  84.0975761  39.5055413  88.0058193
  84.7846985  40.1681948  87.9352665  84.2881393  39.0492225  88.8253880
  38.3757997  27.2997975  63.1638241  38.7013745  26.9908595  62.3183680
  38.0893445  26.5056205  63.6148834  58.2552195  57.7727032   3.6645713
  58.4078646  58.6454296   3.3022469  57.3204422  57.6173592   3.5293156
  26.6328788  20.8489037  75.3230286  26.1538959  20.5316257  76.0886288
  27.0696712  20.0716424  74.9747372  80.5578709  70.6583166  16.0935783
  81.4528847  70.3481483  16.2313628  80.5918789  71.5906668  16.3075781
  16.5149331  11.8516481  21.6654420  16.8592894  12.4252033  22.3500466
  16.3515079  11.0197139  22.1097517  99.1671562  75.1159954  41.8472147
  98.4881973  74.4826698  42.0798969  98.8925934  75.9285069  42.2722769
  99.2037582  81.1521530  50.7410526  99.2054367  82.0024204  51.1806870
  98.8892460  80.5394268  51.4057970  85.1763535  54.4345093  27.6650167
  84.9192333  54.3462276  28.5828018  85.9439373  55.0060272  27.6852322
  86.9612408  71.6524792  22.3277640  87.5269413  72.0203066  21.6488504
  86.3917637  72.3779249  22.5839806  40.7177305  41.9818068  62.8152704
  40.9943676  42.3544407  63.6524343  39.9298263  42.4732351  62.5830317
  50.7750034  25.5875468  89.9431038  51.5293360  25.1963449  90.3837490
  51.1496782  26.2731242  89.3900776  51.2008810  32.0920205  64.9892235
  51.1241722  31.1919808  65.3058863  51.6373444  32.0111728  64.1411686
  44.9878502  35.1678967  85.5622864  44.5001841  34.6288729  84.9394989
  45.8733988  34.8046899  85.5513382  55.4985714 100.3503227  21.6996908
  54.5782137 100.4119587  21.9553757  55.5290174 100.7293415  20.8212590
  73.3512680 105.8287965   6.3287157  73.5027783 105.2624274   5.5720758
  73.4320061 105.2462519   7.0839345  68.4833384  77.0061302  19.5410562
  68.2617712  76.1599493  19.9297941  67.6423550  77.3703575  19.2647982
  54.5202398 103.5018063  49.7463655  55.4483080 103.4102058  49.5306587
  54.4354725 104.4012833  50.0625515   1.7812853  21.3136840  84.2552757
   2.0200823  20.9372282  85.1023293   1.4114341  22.1701527  84.4695282
  65.7655811  93.1224918  17.4724889  66.4001894  92.5692844  17.0170033
  65.2418804  93.5124493  16.7725575  46.2500191  37.4453092  16.4564073
  46.1447906  36.4978957  16.5433943  46.1629438  37.7789521  17.3493421
  69.8153877 101.3253117  10.2663100  69.9517870 102.1323776  10.7625592
  69.7347927 100.6442642  10.9340811  37.1422243  10.1564050  82.2475815
  38.0783582   9.9966067  82.3673820  36.7152619   9.4282991  82.6990223
 106.9485950  88.5376263   7.8565156 106.3399982  88.7232399   8.5716313
 106.7829514  89.2289543   7.2155231  59.3554115 105.1895809  30.9944177
  59.8811245 105.8122540  31.4965510  59.7840452 104.3454742  31.1358261
  22.5657988  42.6874971  69.7603846  21.7035127  42.3013258  69.6068668
  22.4567676  43.2083321  70.5560446  59.8506165  81.2628269  18.2315874
  59.4120550  81.4602089  17.4039769  60.7181215  80.9505367  17.9744220
  66.5088844  78.1169128   2.0433494  67.1170473  78.4595728   1.3884011
  66.5165377  78.7706327   2.7425122  86.3716888  76.6067076  20.2630758
  86.4243126  77.5616789  20.3016019  85.6226635  76.4308834  19.6936238
  74.0474939  66.5097332   1.6060212  73.5556221  66.6371870   0.7948183
  74.7565365  67.1510792   1.5594788  12.4746764  56.7886734  11.4461863
  12.8810918  55.9302139  11.3274181  12.1412539  56.7737627  12.3433137
  81.9869614  65.4410267   3.0333990  81.4844227  64.8572969   3.6016840
  82.7046967  65.7526398   3.5847518  21.1462760   4.9156231  12.1924877
  20.9196687   3.9916250  12.0870972  20.4631925   5.3857970  11.7144048
  92.7359200  82.7109909  22.6751876  92.7601814  82.0859051  23.3996987
  93.6177540  82.6817894  22.3040366  15.5143309  40.8304548  28.6192727
  14.6465361  41.1973524  28.4503078  16.0841894  41.2594795  27.9809690
  82.4815559  58.2818604  13.9293993  82.8172779  57.9109001  14.7454321
  81.7771053  58.8684416  14.2049205  80.7152653  87.4131203   3.1970829
  81.5505886  87.0720673   2.8774756  80.5034065  86.8610477   3.9497894
  89.9470615  18.9995527  34.7825551  90.0352001  18.2424390  34.2035556
  89.8266029  18.6220086  35.6538653  20.0145483  12.4963641   6.3013685
  20.7603240  12.1987593   5.7803309  20.0978351  12.0245886   7.1300554
  25.7168436  25.0575280  82.7952290  25.5825090  24.7690177  83.6979771
  25.9833646  24.2658162  82.3279095  84.9157238  83.6981010  37.1070313
  84.9646282  84.3349266  37.8199768  84.9787045  82.8473091  37.5411010
  53.6221218  45.0511980  78.7628078  52.8880405  45.3923321  78.2519341
  53.2117653  44.5336914  79.4556475  19.1494203  44.6851683  91.2399292
  18.8384581  45.2526474  90.5345917  19.8708677  45.1718855  91.6384888
 110.9029770  16.7294419  86.7931461 110.2304935  17.4058700  86.7128754
 111.4416599  17.0136845  87.5315571  34.9142218  22.3909450  83.3183956
  34.5748091  22.4813581  84.2088223  35.7239771  21.8908167  83.4203720
  88.9808083  73.1583548  17.9893279  89.0980625  72.4252844  18.5935545
  88.8667583  72.7467775  17.1326911 109.4407940  87.9444504   3.6517242
 109.1561604  88.4349823   4.4228226 108.6383915  87.5515747   3.3081490
  90.5593014  88.9166641  13.6705577  91.4549732  88.7157726  13.3991861
  90.1885700  89.4012737  12.9330289 103.1517124  59.8913765  15.4292750
 102.6811981  60.0707912  14.6152353 102.4916744  59.9936056  16.1149383
  64.3079233  23.3568692  82.9155254  64.4806004  22.5062370  82.5119972
  63.7653637  23.1546593  83.6777401  34.0845871  38.6431003  72.0550776
  33.9776826  37.6920199  72.0392513  33.8956618  38.8903213  72.9602957
  98.5465336   1.2505421   5.8431977  99.1952133   1.8194631   6.2576681
  99.0412617   0.7636691   5.1840830  63.1816149  90.2415085  21.8192124
  63.6523581  91.0445976  21.5962982  62.2767687  90.5235863  21.9530678
  96.9969368  92.7252388  20.1876140  96.1621857  92.3998356  19.8506570
  96.7527103  93.3384514  20.8808374 104.0602112   8.4233832  21.7155409
 104.5808983   8.1207120  22.4595237 104.7045231   8.7642425  21.0951304
  95.6693649  45.8049250  12.9577172  94.8476124  45.8523083  12.4691319
  95.9247875  46.7184591  13.0859518  39.9184227   3.9751494  67.2871590
  39.5465207   4.1216955  66.4174175  39.3114328   3.3660859  67.7076817
  84.7295761  74.2185020  13.2572246  84.8758030  73.9354134  14.1598368
  85.4240608  74.8558187  13.0906069  58.9965057  25.6166792  85.6527996
  58.3575487  26.3289261  85.6268597  58.7165880  25.0704288  86.3872910
  24.2724037  22.1740842  67.2374296  24.8982787  21.5071511  66.9550991
  24.4373751  22.9179311  66.6580296  71.6557455  95.1499748  15.6531405
  71.6774082  94.4045544  15.0530398  72.2322416  94.8945141  16.3732982
  18.3574784 102.4434376  12.6793802  18.3000994 101.4908218  12.7531970
  17.7663696 102.6639271  11.9595134  59.0006447 102.2299957  16.6843379
  59.1094494 101.5330029  16.0373497  59.8380899 102.2602463  17.1469390
  21.8496680  37.8288484  81.1898136  22.5316834  37.1945262  80.9690857
  22.1935868  38.6672902  80.8816433  90.6076336 104.1590405  33.8420892
  90.7028294 105.1078033  33.7582994  90.2158356 103.8835144  33.0133486
  28.2679415  74.8918676  90.9977341  28.0801845  75.7921648  91.2631512
  29.0208149  74.6369934  91.5310764  72.9408693  74.7313070   5.8917540
  72.2314739  74.1136980   6.0693747  72.5868654  75.5828762   6.1481577
  24.3162823  41.6067791  86.8986034  24.0958643  41.1650276  87.7186680
  24.6181822  42.4743938  87.1675491  79.7777414 102.5422668  74.9277735
  78.9022064 102.4612617  74.5494699  80.2972603 101.8789959  74.4734573
  42.7726316  33.0761433  52.8172779  42.4476719  33.7699819  53.3910513
  43.7243414  33.1121993  52.9131126  78.6748314  91.8029404  18.3435082
  78.4903288  92.6043892  17.8537440  79.2134953  92.0911884  19.0803850
  29.9581695  30.4426718  75.5067444  30.6777573  30.2988958  76.1213636
  29.7822523  29.5773554  75.1372671  21.8072629   5.0545478  33.7978721
  21.4103603   4.7147977  32.9958320  22.4329138   5.7127541  33.4952879
  41.0663891  51.5838194  83.6527634  41.1502361  51.0937166  84.4706917
  40.7095575  50.9507847  83.0297279 109.4734383  83.1787586   3.0310258
 108.5873890  82.9779816   3.3324271 109.8970509  82.3245525   2.9466879
  21.1646390   8.8798910  15.4653335  20.3347445   8.5013956  15.7555878
  21.7056108   8.9047337  16.2546134  68.6280298  50.4427481  32.9092860
  69.1273499  49.8954344  33.5153890  68.8885069  51.3382006  33.1250453
  44.2193556  27.5361800  85.1513004  43.6229897  28.0425358  84.5997620
  44.4979525  28.1508827  85.8300877  86.6808987  11.5299129   4.9024791
  87.0062065  10.8798778   4.2796987  87.4682331  11.9710076   5.2214807
  68.2720327  48.6172056  23.3498669  68.8455486  49.3642092  23.1787014
  67.5714445  48.9733744  23.8962626  68.1475544  93.1863976   9.7499192
  68.0630350  93.9740181   9.2125738  67.9139709  93.4726810  10.6329322
  44.6632099  39.7316742  83.9735317  45.5768013  39.9845767  84.1062927
  44.5375967  38.9769745  84.5487595 100.2196503  18.0566752   6.1675644
 101.1601448  17.8998542   6.2517929  99.8154640  17.2221184   6.4050156
  90.6940556  19.8298180  11.3099146  91.2298203  20.5834007  11.0623133
  90.4348946  20.0069547  12.2141743   1.6497703  16.7761624  84.7875690
   0.9128835  17.1160173  84.2798901   2.3758167  16.7451918  84.1645622
  60.3598452  93.7555599   0.3553016  59.8902464  93.0290985   0.7651331
  61.1718273  93.8291836   0.8567973  26.9397330  45.4730415  15.0754595
  26.5105534  45.0217915  14.3485427  27.6104307  44.8596287  15.3756547
 111.1737061  18.8914955   9.0046048 111.2149048  18.7568498   8.0578178
 112.0363998  19.2361355   9.2352742  98.7813377  75.7993269   5.9616560
  99.0361118  74.8801756   5.8811277  99.1955185  76.2291193   5.2133501
  80.2819443  87.9825211  59.6764088  79.5969725  88.2172585  60.3024626
  80.0824738  87.0791531  59.4306946  52.9670286  64.4338703  83.4554958
  53.3736277  63.6425018  83.8085365  52.4247456  64.7644424  84.1716480
  13.4055746  38.6564827  72.7687073  13.2128465  37.9260421  72.1808767
  14.2908263  38.4803391  73.0873537   8.6186737   5.1673126   8.0627757
   7.9598629   5.8262295   8.2819301   9.2090404   5.1590651   8.8161886
  60.0583363  67.4616957   9.3394393  59.7289896  66.8716764   8.6614716
  59.6585321  67.1434116  10.1488113  45.7339096  91.5683460  28.8700032
  44.8057842  91.7910957  28.9421010  45.7608223  90.8591175  28.2277465
  67.1136999   8.4262300  24.9731421  67.5891399   8.4787184  24.1440248
  66.8710232   7.5036764  25.0520921 110.7791901   5.0050563   5.5087644
 110.3724957   4.2230898   5.1354516 111.0960770   5.4955190   4.7503066
  24.7513723  19.0283275  86.0607719  24.9679923  18.1279016  85.8188248
  24.9000335  19.0648115  87.0056534   3.1289506  11.8085015  91.4480686
   3.5392290  11.2713742  92.1258545   3.7167490  11.7354739  90.6961441
  85.7788849 102.5708675   4.4163167  86.4695740 103.1851673   4.1676745
  86.2224960 101.7251492   4.4811949  13.8216829  99.6520710  77.4300289
  14.0319955 100.1546001  76.6429710  13.4906638  98.8169098  77.0996189
  70.5435848  52.9296637  12.3750055  70.2238226  53.2528830  11.5326798
  70.9708881  53.6867952  12.7754998  32.4515176  97.1510506  49.7051430
  32.2329569  97.6100636  50.5161762  33.4041023  97.0606232  49.7303486
  53.8818169  66.1529636  17.6239419  53.4919548  66.2786722  16.7588198
  54.8159409  66.0358334  17.4509692  77.2288036  92.9736042   0.1947599
  77.0259571  93.6812305   0.8066045  76.5400696  93.0252075  -0.4679695
  38.7362051  11.4956915  77.9018164  38.2280636  10.7331669  78.1785488
  38.5537291  11.5782583  76.9658089  47.8323841  32.8632832  64.8737240
  47.8692818  33.5151434  65.5736876  47.4479294  32.0900011  65.2865934
  76.8677807  44.6104288  24.6795058  76.5545893  44.9343586  23.8349867
  76.4929724  43.7327623  24.7533345  33.2282519  19.7753060  76.6203785
  33.8657808  20.4627991  76.4276600  32.5823283  20.1992178  77.1854591
  88.3542919  51.6990566  13.2427657  88.5341454  51.9905949  14.1365719
  87.9809761  50.8238220  13.3468652  80.8997726 103.5131550   0.5455081
  80.2993298 103.6148262   1.2839961  81.1260986 104.4090462   0.2957342
  12.0792043  35.7401800  60.9614468  12.1965146  36.5809798  61.4036274
  12.8873491  35.2599406  61.1417341  52.3801184  23.2817554  85.9691525
  51.4296532  23.3950567  85.9726524  52.5764179  22.9318714  85.1000786
  61.3647032  37.3066497  80.1046753  62.1020174  37.9170132  80.1123524
  61.2963104  37.0022702  81.0096169  85.8822536 101.4091015  16.8998611
  86.1036015 101.3391018  15.9712410  86.7243385 101.3540363  17.3516178
  28.2101607  29.5440936  91.6885376  28.6942983  30.2543950  92.1096230
  27.5586462  29.9874806  91.1452389  66.0701180 102.5938892   0.9500408
  65.9134340 103.0494690   0.1229197  65.6156158 101.7571449   0.8524407
  68.7655401  25.3320670  85.8238602  69.6484184  25.2262974  86.1782169
  68.3342409  24.4963169  86.0019875  65.8110332  77.1328211   7.2975874
  65.6927252  78.0791569   7.3793626  65.0993443  76.8512583   6.7227417
  58.0043745  99.0183735   1.1441194  58.4946251  99.7668171   0.8039494
  58.1071186  99.0764809   2.0940131 100.7345009  98.6646652  78.0496550
 100.5147266  97.8797817  78.5515356 101.6913033  98.6718559  78.0230808
  54.9025440  82.3711205  35.1644802  55.0767660  82.6336861  34.2606354
  54.4924212  81.5095520  35.0887895  58.9537239  60.0475693  13.1139994
  59.6278858  59.9138784  13.7802291  59.3364954  59.6931601  12.3114336
  50.9238148   8.5844922  85.7626820  50.6435394   8.9951253  86.5806389
  51.8459034   8.8266051  85.6768131  23.9155173 100.1774597  22.2912264
  23.4110570 100.7956791  22.8199649  24.6653175  99.9486828  22.8404927
  70.3892040  83.7636089  20.9529781  70.9160757  83.9936256  21.7183089
  70.0841713  82.8739071  21.1308002  29.9677849  22.3638296  61.1459017
  29.1839075  22.2686601  61.6869307  30.3583813  23.1891179  61.4332438
 109.0377903   5.5837202  21.5019655 109.7887897   5.7885331  20.9449387
 109.4062710   5.0722814  22.2222996 111.1057377   3.3237556  20.0901604
 110.7950115   3.2242829  20.9900379 110.8899021   2.4917820  19.6688938
  84.2146873  78.6974096   4.0082508  84.0038109  78.3279133   4.8657095
  84.6263409  77.9766464   3.5315216  67.3887348 105.7444096  24.5331526
  67.5481701 104.8115921  24.3894386  66.4797211 105.8763027  24.2638445
  10.7881391  35.5308771  87.2161484  10.7015991  36.2108827  87.8842354
  10.7545543  34.7088218  87.7053642  84.7744083  91.4024353  12.9778540
  84.8266983  92.2939110  12.6332414  85.4248524  90.9125900  12.4746454
  76.1744881 101.1873531  33.2990098  76.4724541 100.6812382  34.0548539
  75.4785395 100.6550407  32.9136133  16.7489004  45.4655504  87.0608711
  16.2000406  45.4892302  87.8447247  16.1274421  45.4110384  86.3348866
  70.5220747  67.3279667  14.7942734  71.1696863  67.1971226  14.1016591
  70.6284237  68.2437468  15.0517130  27.2043371  52.7215767  62.6768923
  27.5289989  51.8559313  62.9248524  27.5382566  52.8576756  61.7902136
   9.7279626  32.9207039  76.9631815   9.9120891  33.6199999  76.3360310
   9.0598017  33.2878590  77.5419664  51.4858818  51.8936014  88.3770084
  52.1733379  51.3118696  88.0526161  51.9453144  52.5167513  88.9398956
  39.1786718  65.6409311  36.3803339  38.7709641  66.4978647  36.5055418
  38.7436128  65.0734329  37.0166516  32.6908779  14.7909141  90.4012108
  33.1186676  15.3979754  89.7973061  32.0139885  15.3155708  90.8287430
  21.9277573  30.3962278  65.5622673  21.3508892  30.7673335  64.8946333
  21.3445306  30.1815796  66.2902832  26.3128185   8.6675006  79.9842834
  26.6076112   8.3160102  80.8243942  27.1191525   8.9170080  79.5328379
  39.5436740  35.5710649  87.8201103  39.7160172  34.6380615  87.9467392
  40.2031183  36.0113668  88.3563042   8.3981735  27.1033955  30.0908828
   9.0081918  26.8822503  30.7945895   7.5483483  26.7941952  30.4046059
  63.6436033  69.7824907   7.2204185  64.5198345  69.4305086   7.3771089
  63.5836267  70.5423117   7.7994770  51.7327118  75.0309086  28.9567065
  51.5547562  74.2365217  29.4602060  50.8693457  75.4129553  28.7989902
 111.0532570   2.7004820   7.2398347 110.7479954   1.9898912   6.6758233
 110.9524632   3.4892920   6.7070585 110.4745388  75.1682901   7.0770848
 109.6656036  75.4111767   7.5274903 111.0519505  75.9219742   7.1986830
  61.7512226  17.1985388  77.5355387  62.1150541  16.8033350  76.7432833
  62.0567989  18.1053686  77.5128889  45.5225229   7.5666279  20.1850796
  45.2209616   6.6866267  19.9594879  46.4675999   7.4727046  20.3043866
  19.2191970  42.1947384  90.0013065  20.0984573  41.8524790  89.8400879
  19.3627656  42.9968214  90.5035877  22.3442745  56.1220217  81.3480568
  22.5631309  55.7094479  80.5125141  22.4461102  55.4231834  81.9941902
 101.8024063  83.9741898   9.1358560 102.2914314  84.2779160   8.3711118
 102.4207687  83.4186459   9.6104312  28.4892988  62.3483801  74.1873264
  28.2712412  62.3162746  73.2558489  27.8142834  61.8172359  74.6097803
  47.3204231  47.3137617  74.9371910  47.1429729  48.1910563  75.2764463
  46.4874935  47.0295000  74.5608234  23.2146096  18.6275196  11.5263736
  22.8368068  17.7663970  11.3475835  23.3463717  18.6391163  12.4743903
  16.4069188  36.3771415  68.7735987  16.2104332  36.2294912  67.8484917
  16.3537550  37.3267937  68.8811445  83.3679008 103.1464767   3.4732953
  83.2029533 102.9737663   2.5463673  84.2868042 102.9108143   3.6010206
  72.7324486  60.3042459  82.4706841  72.3109913  59.9679852  83.2615948
  73.6115026  59.9258518  82.4883747   3.2262349   7.5566643   0.8507506
   3.5368881   7.8751111   1.6982871   4.0053105   7.5568265   0.2946275
  18.0798566  30.4762650  32.3848414  18.6347568  29.7470641  32.6615834
  18.6375368  30.9950161  31.8050790 105.1679420   5.9720355   0.1114901
 105.3880024   5.1246381   0.4984339 104.2509460   6.1122125   0.3474818
  57.5686455  44.2894030  14.5482993  57.7055407  45.1232100  14.0985727
  58.2036877  43.6948204  14.1490126  54.1322231  31.3673019  52.5848675
  54.0732002  31.3062572  53.5382938  54.3605947  32.2815919  52.4170828
   9.5864826  99.0996552   6.4236826  10.2652955  99.6760750   6.0727072
   9.7026020  98.2763863   5.9493780  23.1284595  78.3809900  31.3265467
  23.1854486  78.8630486  32.1515346  22.1959448  78.3852053  31.1106038
  42.3340654  29.8110127  91.7097664  41.7453718  29.7102976  90.9617519
  42.4326181  28.9248705  92.0580101  19.0517449  41.9629765  71.3531828
  19.4975746  42.6342392  70.8365774  18.5509384  42.4548721  72.0039225
  97.6444054  75.2609062  10.1043463  97.3182011  74.5066881   9.6134508
  98.4757328  74.9642849  10.4746854  82.1472740 102.8247356  15.8212042
  81.4675426 103.1101418  15.2106762  81.6846657 102.6884556  16.6480422
  76.8985501 105.8081454  20.7203269  76.0772562 105.7841090  20.2292752
  77.5800319 105.7663509  20.0494552  31.8011498  93.7666798  87.6917458
  32.5863767  93.7869644  87.1447086  32.1217704  93.9371204  88.5773945
  75.7848358  66.7400169  76.5722513  76.4876699  66.0906029  76.5949821
  75.5627775  66.8202496  75.6446314  86.0958576  52.9506540  91.0601521
  85.6296158  52.7345133  91.8677044  85.4199886  53.3007145  90.4797363
   2.5563112   1.1256188  10.8319616   3.0476734   0.4869508  10.3153396
   1.6383871   0.8983631  10.6836295   9.6225303  72.3275423  38.6902094
   8.7874913  71.8614101  38.6494255  10.2774847  71.6654158  38.4691668
  89.7943306  78.3669758  21.1724281  89.9574375  79.1188622  21.7418909
  89.6897316  77.6294613  21.7735696  58.3727837  54.8072481  86.1690807
  57.9609203  54.1299248  85.6325817  57.6601982  55.4094028  86.3832378
  50.1095104  66.3809919  91.0421181  50.0363731  65.8440018  91.8311214
  50.9688139  66.7965174  91.1140156  20.9092140   2.5955874   3.4117940
  19.9737740   2.6592672   3.2191077  21.1147141   1.6677412   3.2973236
  40.6517410  35.7987428  80.3217602  40.9428835  35.2163887  81.0234261
  39.7037363  35.8599091  80.4391479  39.4730730   0.4473752   8.7595582
  39.5508081  -0.2924758   8.1572211  39.2313634   1.1863774   8.2012683
  41.4470959  32.4943376   9.3028492  41.1529684  32.5906682  10.2086318
  42.1521473  31.8484688   9.3473744  37.0669484  54.3912601  77.1094751
  37.9891753  54.2848587  76.8762255  37.0751095  55.0031424  77.8455210
  18.7134480  16.4754999   8.7926161  18.7495863  17.3013067   9.2752850
  17.8450191  16.1226296   8.9863831  42.4684381   3.6843663  21.9062138
  42.3347473   4.5134085  22.3656130  41.8522882   3.0795041  22.3194122
  12.8399885  33.2748246  12.5163031  12.3245275  32.5505590  12.8712261
  12.8303242  33.1342816  11.5695274  49.9537182  37.5135207  81.5165806
  49.4800329  38.3452439  81.5071774  49.4545317  36.9469237  80.9283447
  46.0768461   4.5630822  20.7558346  45.3779030   4.4334888  20.1148081
  45.6212473   4.6452197  21.5936375  49.8817968  13.5324299  14.2507958
  50.2372789  12.8679359  13.6606169  50.3270149  14.3409240  13.9971220
  67.9538584  61.6390276  11.0562825  67.1985912  61.0770416  11.2294126
  68.5900450  61.0618639  10.6339252  28.7337756  10.1561284   5.1517850
  28.3255982   9.3168825   4.9389741  28.5592246  10.7075894   4.3891212
  75.6885767  74.9423838   4.7561413  74.8261356  74.8561907   5.1623386
  76.2867928  75.0788307   5.4908204   3.5430929   8.8533300   3.3565986
   3.4717381   8.4553736   4.2242223   3.9314684   9.7130632   3.5186365
  81.2726021 101.8625355  11.9619298  81.1818504 102.6469994  12.5028646
  81.3977718 102.1971226  11.0738885  59.7252512  46.1239719  91.5824699
  59.5938301  46.8585730  92.1819115  59.5634317  46.4918375  90.7137299
  62.6438096  70.2697976  91.4102438  61.8721869  70.7134576  91.0581116
  63.0687859  70.9283240  91.9597614  29.3191051  28.4181142  12.5822711
  28.3999968  28.5769272  12.3672116  29.7867703  28.5686302  11.7607701
  49.6397924  15.2414536  83.7366104  49.6007729  16.1921537  83.6323071
  48.9705467  14.9073148  83.1393719  90.1858425 102.4287605  15.9040928
  89.4382477 102.9584885  16.1810660  90.8923340 103.0612755  15.7735717
  48.5616493  33.9842892  68.3963490  48.5980892  34.8670650  68.7646055
  49.2221498  33.9863253  67.7035570   9.6609038  45.5970097  85.8099174
   9.6421295  44.7169828  86.1859989   9.0691650  45.5492687  85.0590611
 103.1825447  32.8882384   6.4925408 103.1130886  31.9796848   6.1993897
 102.3516083  33.0613160   6.9350600 107.9127979  11.9709623  16.2847090
 108.6448002  12.5650597  16.1190307 107.1983910  12.3159480  15.7491338
  17.7610469  64.9908447  90.5978775  18.0270362  64.2059231  91.0768127
  18.2927585  64.9775171  89.8020458  18.0507195   3.5272458   0.7102078
  17.8220248   3.4990543   1.6392589  18.9971435   3.3851701   0.6920988
  65.0325537  61.3608217  88.7723732  65.2037716  62.2915792  88.9159107
  65.1620674  60.9582520  89.6310902 109.3375111  72.9784060   6.0219431
 108.5943985  73.3150816   5.5212760 109.8727322  73.7506485   6.2047601
  48.1667948  27.7922821  58.1033516  48.0452919  28.0506563  59.0169764
  47.6111460  27.0201755  57.9968739  59.7200346  50.6700277  87.7223778
  60.2345848  50.2732658  87.0194912  59.9266052  51.6033649  87.6729202
  86.6379452  76.8639088   9.4632024  87.1146488  77.1032000   8.6683893
  86.9620419  77.4707556  10.1287317  32.2160339  51.2740374  91.4749050
  33.0134916  51.2856960  90.9456062  31.5198755  51.5170622  90.8645535
 112.0936012  97.6156998  74.1679764 112.5453186  96.9421577  73.6595392
 112.6943874  97.8175259  74.8852968  33.7837911  48.1149197  73.1141567
  33.6287451  47.1953726  73.3300924  34.5957828  48.3345938  73.5709333
  52.3399305  68.0932713  91.2171364  52.7950144  68.0785465  90.3751755
  53.0174065  68.3274317  91.8515110  37.9281306  91.2498856   3.8232026
  37.8523636  90.5177307   3.2112816  37.0423269  91.6083717   3.8786098
  45.6234121 104.2986870  27.6397872  45.9879398 103.4658718  27.3401570
  44.6985912 104.2566872  27.3965311   6.3081646   0.6740341  38.6193562
   5.8324164   0.2022378  37.9357600   5.7925236   0.5301927  39.4128633
   7.9614043   1.8070194   1.8414640   8.5907882   1.1922163   2.2184592
   7.8642720   2.4883974   2.5066867  71.3391304  56.4449120  85.9330368
  70.4088449  56.2951183  85.7646179  71.7591906  55.6132317  85.7137585
 104.9362087  77.8147745  61.8270063 105.4076195  78.1899548  61.0832024
 104.8781300  76.8804741  61.6271591  66.5076876  34.2575693  86.7921352
  65.6391048  34.2339396  87.1936798  66.4237070  34.8878336  86.0766315
  34.6032453  53.3719826  60.9006357  35.0370812  54.1886568  61.1477327
  34.2169213  53.5555696  60.0443172  32.8152442  45.4221964  69.5574665
  33.7463617  45.2018929  69.5842981  32.3758984  44.6490908  69.9117517
  22.4806499  30.5985451  51.1764765  22.4239516  29.6445274  51.1229324
  22.9315567  30.8571696  50.3727198  50.7761383  60.9635353  88.5629654
  49.9588919  61.4604187  88.5249138  50.7379246  60.5035067  89.4015026
 102.5524998  66.9159555   8.5731691 103.4386158  66.6731882   8.8416678
 101.9962406  66.2225628   8.9281565   2.2085083  18.4296203  13.0861461
   2.4907488  18.3865762  13.9997768   1.3182364  18.7789106  13.1266940
  70.2666616  95.9815598   2.6994604  70.3564739  95.3408146   3.4048820
  70.1532841  95.4534531   1.9092174  41.7167330   0.9473518  11.8983448
  42.1661091   1.0603513  11.0607743  41.5622950   1.8392816  12.2095382
  48.4870243  51.2632465  84.6970940  48.7232399  52.0954704  84.2874146
  48.9733505  50.6052160  84.2003918  35.4533291  80.2229881   3.5468215
  34.9793959  79.4511747   3.2371014  35.4829383  80.1201344   4.4980198
  56.3231182  82.8532028  13.1738424  57.1683645  82.4242783  13.3073115
  56.5235233  83.6121655  12.6260710  86.1949158  96.0041618  -0.1518322
  86.9665146  96.1302280   0.4004212  85.5019188  95.7526302   0.4586791
  34.2537928  52.2024536  89.7707653  34.8741102  52.6994896  90.3040504
  34.8038888  51.6942358  89.1746616  68.2163811  87.5563622  18.1607151
  67.2924185  87.4270058  17.9467309  68.3088589  87.2039127  19.0458465
  93.0773640  89.1608715  12.3224664  93.4430695  89.9420929  11.9075155
  93.4157276  88.4324455  11.8017626  36.4122844  66.4110231  85.6740284
  36.8722939  65.7893515  86.2380791  36.7284060  67.2694302  85.9558678
  41.6624689  28.2118678  80.0804043  41.6886806  27.2622633  80.1978588
  41.0424805  28.3475542  79.3638611  96.3948822 104.7438717   6.3874090
  96.8610287 105.0568008   5.6121606  95.4970455 104.6036053   6.0866523
  70.3707361 100.0283527   2.6955247  69.7952461  99.4498348   3.1958824
  69.7826290 100.6810284   2.3155457  96.3706684  70.1608706  24.8472428
  96.1194229  71.0551929  25.0780988  96.4567947  70.1747704  23.8940263
  84.4365788 100.0418472  23.4123397  83.9161015 100.4419899  24.1089249
  83.8066196  99.8663616  22.7133393  98.6280727  93.7701988  18.1694591
  98.7197971  93.2337761  18.9569044  97.9785061  93.3083534  17.6393640
  50.4208755  47.1195698  66.9155979  49.9713135  46.4033651  66.4670658
  50.8936453  47.5779724  66.2209129  42.7756357  38.5919976  76.2151194
  42.2648144  39.0681195  76.8697977  43.4040451  39.2353559  75.8873653
  19.6242785  39.6725845  86.0785675  20.2924418  40.3155661  85.8411598
  19.6582961  39.6335840  87.0343590  38.9229178  12.4153185  90.9374809
  39.2745233  11.5436327  90.7564640  39.5937943  12.8375030  91.4740658
  78.9800072 101.5604496   5.9488583  78.9730263 102.4351788   6.3374674
  79.5650673 101.6378307   5.1952314 105.7490730  13.6429691  10.1216662
 104.9769211  14.1630375   9.8990715 106.2064457  14.1637623  10.7818305
 103.3170033 100.7788944  10.5401218 103.4807396 101.3565636   9.7946548
 102.4493217 100.4112530  10.3721929  56.5911531  60.5988169  90.3196812
  55.9939384  60.0445414  90.8220291  56.1032200  60.8189964  89.5261669
  39.4639921  23.9700437  12.1519434  40.1726675  24.5960474  12.0031726
  39.8681259  23.2672548  12.6608586 105.2284431  88.2328987   4.7141373
 105.3794003  87.8692150   3.8416812 105.4661083  87.5250816   5.3130871
  53.5570145  27.3860574  84.2694664  54.1476536  26.7411923  83.8802052
  54.0812778  27.8126001  84.9472809  46.8362331  49.8556376  76.4517927
  47.4338818  50.4112101  76.9521856  45.9757137  50.0221586  76.8365145
  80.9259510  69.1437483  26.4598131  80.4059887  68.8644934  27.2133923
  80.2850819  69.5042181  25.8469677  89.8005676  83.8359547   4.5994532
  90.7119179  84.1250038   4.6456027  89.5922470  83.8487720   3.6652851
  24.8720813  42.1950722  78.0056953  25.2111578  42.3109770  77.1181011
  25.6308341  41.9141197  78.5171556  38.9106584  33.8970423  72.8437853
  37.9771900  34.0765238  72.7312803  39.0377975  33.8754630  73.7922573
  43.3739424  15.4986572   8.9095944  44.2716122  15.7971752   8.7636089
  43.0672169  16.0168684   9.6536434  33.4107733  33.6196685   7.8291070
  34.3378758  33.6054850   8.0668342  33.0976582  34.4703460   8.1365770
  30.9304428  11.9432926   6.0959566  30.2609944  11.3674688   6.4654142
  31.4891481  12.1690643   6.8396670   3.0042705  32.8594303  31.9556427
   2.6277965  32.0692492  31.5681982   3.1481797  33.4453630  31.2125373
  30.3020310  51.9504118  89.6893597  29.4614649  51.6909981  90.0667095
  30.2961922  51.5733576  88.8095760   7.7995282  13.8056087  64.9164200
   7.5977296  12.8961086  64.6966076   7.0569795  14.3046772  64.5761538
 111.7743397  15.1772439  21.1743569 111.5031242  14.2596912  21.2020922
 110.9935379  15.6491506  20.8847475  31.0894251  99.1107273  65.7777119
  31.8697262  99.3357658  65.2710390  30.8377028  98.2444191  65.4577494
  48.0264425  29.3651199  50.7093906  47.6484203  30.2177382  50.4940462
  47.9819441  29.3176961  51.6643763 107.2248840   5.5063748  15.0640655
 106.7018700   6.0550505  15.6485653 108.0832100   5.4583025  15.4850006
  40.4703951  43.1517029  67.8885317  39.7530532  42.5913572  67.5924444
  40.3283072  43.9824820  67.4348211   9.3505007  12.6123488  14.7978365
   8.7447554  12.8004634  15.5147171   9.7176743  11.7550218  15.0132537
  61.3433027  86.0788536  78.1084251  61.5451860  85.1494026  78.0006742
  60.6927013  86.2627506  77.4308348  68.1408501  65.3645039  78.3216667
  68.8946962  65.9533072  78.3571959  67.8369474  65.4189014  77.4156237
  50.7547140 103.7445164  44.3884850  51.0168934 104.0088081  43.5066414
  51.1741209 102.8939342  44.5182371 105.2988052  90.5940533  11.6173029
 104.8309898  91.4290810  11.6067314 105.1006413  90.1977348  10.7688379
  60.8772230  50.1562691  85.3850269  61.7827654  49.9182129  85.5839062
  60.9389734  50.6955576  84.5966148  60.4244518  95.8550644  86.2830067
  60.1920509  96.1272144  85.3952217  59.8445177  96.3643456  86.8491745
  46.2091017  30.5555415  88.7650299  46.6592264  30.4877210  89.6070576
  46.2244511  31.4903665  88.5598469  58.9219713  43.3515787  91.0542202
  59.4563913  44.1441059  91.0039520  58.9651966  42.9773426  90.1742649
   3.9237458  20.4262590  23.5157299   4.2687830  20.4948378  22.6255178
   4.3347314  21.1501241  23.9883232  56.6871595  44.5560026  66.3796091
  56.0581446  44.5192623  67.1001768  57.5246143  44.7465706  66.8022060
  67.9209042  76.2469482   8.8610214  67.0915031  76.4383030   8.4231770
  68.4894943  76.9809866   8.6283743  54.8367453   8.8967711  19.3980932
  55.5544186   8.5329992  18.8795948  55.2647686   9.4857502  20.0194860
  33.1403494  16.6980934   1.5845259  33.7925506  17.3060870   1.9326772
  32.3689818  16.8332958   2.1349290   1.7520997   9.9178958   7.5186229
   2.1660139  10.4570615   6.8446743   1.8599856  10.4197478   8.3265448
  37.6915908   0.9701835  24.2515755  37.7360177   1.3435303  23.3713102
  37.9193211   0.0481320  24.1324449  79.4602871 105.4682159  36.9680023
  79.1709661 104.5953846  37.2338915  78.6854553 105.8670998  36.5720773
  26.6569448  56.6348791  13.5896909  26.2277722  57.4810123  13.4628057
  26.0349298  55.9961843  13.2412755  69.4147921  97.1634769  16.4000463
  69.4570351  97.6852512  15.5986750  70.0341749  96.4485836  16.2533116
  16.8813109  26.7152286  19.6271205  17.5233281  27.0474958  20.2545333
  16.3915014  26.0524130  20.1139402 108.6689758  72.7317619  25.3104186
 107.7691174  72.4170446  25.2241898 108.6504364  73.6145067  24.9407625
  30.7379317  71.5152931  11.8918228  30.2284408  70.7484770  12.1538222
  30.3003240  72.2512388  12.3197448  97.7651405  96.3382721  10.9983385
  98.3052349  97.0097637  10.5816531  98.2484341  95.5234051  10.8618152
  94.0476227  70.8272839  29.8977566  94.4945812  70.1757193  30.4380584
  94.7064209  71.1023235  29.2601275  44.1255951  26.6029739   0.5299329
  44.3769550  27.1498704  -0.2143491  43.4857321  27.1296740   1.0088828
 102.8566933  89.5710182  21.5228677 103.4252548  88.9171600  21.1161232
 101.9865227  89.3841362  21.1705756  76.2117672 105.9946537   2.6126537
  76.6232109 105.4013252   1.9842403  76.6444492 106.8358803   2.4665157
  20.0940919  26.6125560  81.8101025  19.3344855  26.1640596  81.4385128
  20.0544858  26.4154363  82.7459526  28.3811545  23.0199122  76.0835791
  27.8052330  22.2902417  75.8552551  29.2167139  22.6065969  76.3009310
   4.5201316   2.6139456  23.6751556   4.5850372   2.8203684  24.6075773
   3.6769161   2.9791552  23.4071231  89.9954796  92.5422478   1.8790528
  89.4569206  92.0264435   1.2789500  90.2489090  93.3129978   1.3711594
  50.6227303  76.9864416  89.4314098  51.0244322  77.7331781  88.9872837
  51.0976458  76.9164848  90.2595425  60.6218052  51.4798164  83.1111717
  60.2707386  51.3804388  82.2262383  60.4748964  52.4011803  83.3250523
  92.6907539  33.6594200  77.1235514  92.6311493  33.9245033  78.0413818
  92.7595615  34.4828701  76.6404104  38.4061718  58.6621189  79.4642305
  38.9006853  59.4786882  79.3942070  39.0262270  57.9830599  79.1984510
  38.3765912  38.3667994  68.9607716  38.2361960  38.3195901  69.9064445
  38.9315128  37.6123428  68.7630606  51.0019159  52.8638935  82.0162392
  51.3455153  52.1845770  81.4359856  51.7747736  53.3566952  82.2920609
  39.1943550  38.7873983  81.4037323  38.9033628  37.8854990  81.2690830
  38.4161186  39.3180895  81.2335968   4.0980598   4.1684675   2.6610145
   4.5055407   4.4666287   1.8478164   4.5633718   3.3611783   2.8801054
  15.7080472   7.1533775  15.8721459  15.5486608   8.0234206  15.5062866
  15.1264715   6.5755612  15.3780508  95.4901600  21.1993837  15.5214417
  96.2920761  20.9587669  15.9854150  95.7298756  21.1653590  14.5953667
  43.5951471  40.2714252  73.9738369  43.5662413  39.3924046  73.5960579
  43.6341667  40.8562088  73.2170439  57.8388357  57.2487020  80.9008884
  57.2117949  57.9359913  80.6757545  58.5332108  57.3346663  80.2476788
  90.4853249  90.5736542  11.5576136  91.2423038  90.6760502  12.1344376
  90.7868290  89.9800682  10.8698690  81.4300156  77.6666880  78.7978649
  81.3569546  76.7563629  79.0845776  80.8684063  77.7200460  78.0245686
  74.0827084  93.1293678  31.6193461  73.2090521  92.7929783  31.4198661
  73.9277077  93.8545513  32.2245860   0.0120912   3.6380234   2.1500383
   0.9059763   3.4090158   1.8955651  -0.2585275   2.9313958   2.7362764
  34.7139454  16.3217330  16.7477655  34.9761963  16.8529236  17.4996245
  33.7653995  16.2304950  16.8381548  15.4241467  73.1342888  90.8467579
  14.5985591  73.0413580  90.3713703  15.1626766  73.3679819  91.7374134
  28.7800908  13.2095134   7.7516383  29.5290756  12.6194882   7.8360468
  28.4035778  13.2459152   8.6309248  50.9734154  97.6729298  16.7681372
  50.1336861  98.1269264  16.8386757  51.0550499  97.1910667  17.5911641
  83.0816650  29.3264961  71.2160826  82.4315166  30.0258875  71.2823200
  83.4552765  29.2627525  72.0950508  25.4147935  50.0292969  47.9520798
  24.9905181  49.1807222  48.0791235  26.3469815  49.8522806  48.0782604
  96.0504246  73.2980299  21.1448288  96.8572426  73.8038301  21.2419343
  95.3862762  73.9481592  20.9157634  29.8400116  32.2155142  71.8290091
  29.0150380  32.2420573  71.3442945  29.9482584  31.2947989  72.0673370
  53.3636713  70.9133673  75.7323265  54.0724373  70.8187389  75.0959873
  52.5875998  71.0927725  75.2015257 103.7064457  69.4835806   1.4021839
 104.5596981  69.8662424   1.1978467 103.8776779  68.8953733   2.1376568
  43.7164450  54.6299028  82.8772736  44.5702457  55.0613499  82.9106140
  43.8551235  53.7902451  83.3154202  31.4111614   7.1341318  12.4092162
  31.0838509   6.3388073  12.8294063  31.8339157   6.8250901  11.6079652
  80.6018829  87.5245857  28.3422565  80.5047798  88.4574890  28.5333085
  80.7467747  87.1188641  29.1970253  83.4681797  90.2464294  30.9083128
  84.1145515  89.6176434  31.2293577  83.5818386  90.2426052  29.9578929
  12.8740406  67.3946142  90.1532364  13.4565413  67.4874592  89.3993759
  12.7059448  68.2928514  90.4380989  71.4383459  97.4693680  28.5637283
  72.1642447  96.8510437  28.4801912  70.9165239  97.3344040  27.7727032
  25.3677011  21.1423469  89.3814468  26.0208273  21.5011048  89.9822330
  24.7253847  20.7189059  89.9509716  64.6718311  68.1233692  85.2108765
  63.8371038  68.1577969  85.6780815  65.3318405  68.0784607  85.9026909
  55.3419542  38.0058551  79.4553709  54.6694756  38.2305789  80.0984097
  54.8780155  37.9928136  78.6182213  48.2037592  85.4870033  80.5313969
  48.5925913  84.8063946  79.9820185  47.3365211  85.1486015  80.7541370
 100.1134396  58.1958866  75.9770012 100.2678299  58.5822868  76.8390274
  99.4446659  58.7542677  75.5805302  61.8417597  58.3900881  88.8578987
  61.2037611  57.9628801  88.2863331  62.1382046  59.1513681  88.3590889
  81.3505268  97.2930717  11.8490565  81.6628647  98.0270576  12.3781610
  82.1479797  96.8473721  11.5632987  34.3880272  40.6667662  69.8729086
  34.3100452  40.1626062  70.6828356  34.9683952  40.1435614  69.3200445
  92.0847511  57.0512772  86.1291695  91.6540718  57.2011709  86.9707584
  92.9570389  57.4307823  86.2355423  49.2294264  82.7787304  58.9755392
  48.3006001  82.9388809  58.8086081  49.2929029  81.8299961  59.0855742
  87.1537590  32.1841621  85.7982922  86.8420792  33.0833530  85.6956005
  86.4701653  31.7505980  86.3091373   4.2985103  34.7967410  42.2071648
   3.6373490  35.4762006  42.3391962   3.9197671  34.0132976  42.6059103
  40.7053185  45.1031113  53.2486391  41.0180855  44.2520237  52.9419422
  41.4998722  45.5736923  53.5005665  54.1822720  78.5515594   9.2550236
  54.4513845  77.6407290   9.1358823  54.7859955  79.0532875   8.7072849
  88.1453896  96.8873405  14.4098389  87.9982471  97.8138924  14.2199194
  88.7324429  96.5905952  13.7144637   4.1170123 104.3458080   9.8812163
   4.9963617 104.7134495   9.9696332   3.5950997 105.0589943   9.5135093
  10.5649877  15.6528413  22.7583170  11.2729931  15.4695940  22.1407557
  10.2365601  14.7894657  23.0092144  28.3404732  60.0161791  83.8648605
  28.1448197  60.8350229  83.4093952  28.1847072  59.3350649  83.2106018
  90.8673573  43.5229206  72.7784157  90.2775955  43.8694954  72.1088648
  90.7113838  44.0755510  73.5442543  36.4079642  56.4313030  79.2563629
  36.7147446  55.6690216  79.7473288  37.0925903  57.0883989  79.3818235
  59.2975330  28.3497167  77.9461241  59.8229361  29.1404510  77.8239584
  59.8878145  27.7348733  78.3817482  50.4243517  64.8730755  80.1769733
  50.2623129  64.1877413  80.8252716  50.2804518  64.4438314  79.3336058
 112.4344343   9.0087408  41.2957811 112.0711215   9.8169613  40.9338236
 112.6875058   8.4952700  40.5286217  78.1020308 104.7894096  30.8387160
  77.5919771 104.2527962  31.4454460  78.8803291 105.0397301  31.3365340
   2.9628956   6.1675358  14.0422738   2.7367747   6.0642308  13.1179202
   2.8428900   7.1012878  14.2152977  50.3102398  90.6950760  16.9044125
  49.6127462  90.0402069  16.8747950  50.5605984  90.8199120  15.9890056
  17.7044392  19.3642652  24.2430639  16.9499004  18.9670432  24.6779394
  18.4630847  18.9970970  24.6968007  62.1919537  28.7210345  85.4110527
  61.8064690  28.0171394  84.8893547  61.5491962  29.4291377  85.3700352
  79.4229317  93.4222031  13.3902907  80.3487968  93.3348370  13.6169481
  79.3735647  93.1476498  12.4746406  12.8950930  29.7618771   2.3427041
  12.2667730  30.4780793   2.4349126  12.5122821  29.1917872   1.6758579
  27.0895529  15.1759493   5.8288789  27.6284790  15.6921673   6.4283031
  27.0086956  14.3222892   6.2542713  97.1995354  93.7781334   8.9418620
  97.1368885  92.9901123   9.4816136  97.6914978  93.5006332   8.1690758
  54.9691391  41.3624954  74.0888453  54.5638514  41.5170622  74.9421215
  54.2345381  41.3380957  73.4756613  23.3029938  33.6951447  87.8132725
  22.4984217  33.7962723  87.3046780  23.2723117  34.4057250  88.4538651
  81.2165546  99.1258144   4.4166839  81.4850426 100.0445843   4.4143075
  81.4430618  98.8123608   5.2922821  20.5542374  47.7221251  66.3518095
  20.4076219  47.0920372  67.0573092  20.3137517  48.5671949  66.7316151
  89.8056316 101.4762783  11.8958664  89.0198708 101.7689133  11.4341545
  90.4652405 102.1385574  11.6896212  81.5146255  71.4949656  13.4334338
  81.7453671  71.1171150  12.5847781  80.5595016  71.5557003  13.4168530
  82.5598335  98.0176449   2.2330716  81.8821239  98.0898857   2.9051781
  82.3114967  98.6639214   1.5720938  33.3848548   6.2500417   7.2832000
  33.0652881   7.0386410   6.8447697  33.3407497   5.5685562   6.6124803
  89.1230297  62.8827190  35.5156565  88.7446308  62.0492983  35.7957721
  88.4547806  63.5334587  35.7306457  90.2677631  86.1172485  11.1954212
  91.2190914  86.2124538  11.2415838  90.0400829  85.6072903  11.9728148
  68.1866646  87.3864365  40.4519272  68.7633657  87.7995872  39.8093128
  68.7363434  86.7300320  40.8799696  48.2566357  59.3606377  80.1619720
  48.4239531  59.3812609  79.2197371  49.0848970  59.6311188  80.5582809
  22.1815062   7.3293376   4.7453830  23.0626774   7.5757527   5.0265360
  22.3091722   6.5361476   4.2250156  20.8789086  11.2462473  14.0733182
  19.9410081  11.4373946  14.0793645  20.9328604  10.3061461  14.2451620
  43.0810738  99.1479492  74.5780659  42.8019714 100.0416088  74.7773314
  43.5808134  98.8758564  75.3477764  25.2006721  27.5873160  19.8242319
  24.6577597  27.8658605  20.5617213  26.0032916  27.2579312  20.2286315
   1.7450960  98.2948017   1.3737993   1.5017121  98.4976673   2.2770375
   1.0217111  98.6365509   0.8482982  88.4303665  10.1137340  90.5549049
  88.2505226  10.8250868  89.9401951  88.6344051  10.5553818  91.3792515
  98.0762959 104.6974468  26.8538284  98.9724636 104.5102882  26.5743828
  97.7360916 103.8527966  27.1488786  27.9905009   2.9648942  21.0966754
  27.5288439   2.1286272  21.1580038  28.8462114   2.7955529  21.4907765
  18.0436921   3.0506444   3.4441411  17.5306392   3.7594050   3.8322991
  17.8006840   2.2746828   3.9491782  47.1500397  80.6030083  49.9389458
  47.3291969  81.2404156  50.6302118  47.1587658  79.7564650  50.3856182
  42.8122854  16.4233041   3.6761457  43.6769485  16.3277650   4.0754762
  42.5778961  17.3387599   3.8285753  78.5151529  60.4875803  76.1329031
  78.9263248  60.5812502  76.9922018  78.3510303  61.3861179  75.8466864
   9.8188460  13.4306073  72.2390223  10.4400384  14.1068316  71.9687033
  10.3544271  12.7824593  72.6965046  60.5002785  34.0520334  15.1673114
  59.9602461  34.3557572  15.8969343  60.9893703  33.3104563  15.5237961
  20.7110524   8.2609576  25.2344656  21.2978506   8.2676595  25.9906769
  20.0933886   7.5528246  25.4168606  11.2315166  85.5753899   1.0963866
  12.0853174  85.4419422   1.5080261  11.2047124  86.5115452   0.8985409
  14.7170007   2.9417324   1.5795563  14.3077230   2.8567886   2.4406654
  15.3583813   3.6440313   1.6874376 112.5367641  92.1287918  36.1263394
 112.1033192  92.1517372  36.9794703 112.4715519  91.2149620  35.8490515
   2.6969668  98.0419445  13.3428228   2.8154299  97.7414989  14.2438948
   2.3944186  97.2667980  12.8697073  57.9311180  99.3455982  25.9850574
  58.2499027 100.2474880  26.0196853  56.9851685  99.4209385  26.1105108
  46.6327429  62.2872448  84.8822594  46.4976025  62.0808411  85.8071232
  45.7541323  62.2725391  84.5027065  50.0157404  80.0891113  88.4791279
  50.1260281  81.0332012  88.5920906  49.4080067  79.8342037  89.1733265
  96.9936752   1.0363996  48.3774614  97.1159363   1.3835596  49.2610693
  97.3883915   1.6941753  47.8049564  10.7968128 100.8046627   0.9745778
  10.5090082 101.4468479   0.3257264  10.1791954 100.9030342   1.6992190
  13.7128031 103.8369560  15.5086958  13.0972695 103.2357407  15.0892985
  14.5764232 103.5085773  15.2585721  71.2400913  67.4704218  88.4263134
  71.1545944  66.6127396  88.8426113  70.6153107  67.4481964  87.7014828
  32.3997664  27.8231454   9.7230560  31.9586611  27.1711516  10.2676308
  32.2623158  27.5185704   8.8260764   8.9784420  34.6760964  25.9542632
   8.7576061  34.3523598  26.8275666   9.6699250  34.0888643  25.6489086
  92.5500202  58.1059456  78.4722710  93.4390068  58.4534931  78.5440636
  92.0495319  58.5909224  79.1284275  26.0165286   5.1667297   7.6975143
  26.9260192   5.4067361   7.5201541  25.7623720   4.6233839   6.9515836
  18.7822926  93.4077263  12.6707566  19.5230722  92.8427505  12.4510360
  19.0536904  94.2802429  12.3856390 108.4482479  44.5915985  33.9011264
 108.8470364  44.1561794  33.1477261 107.5557804  44.7905540  33.6180449
  16.3192070  19.7401655   7.7086395  17.2395039  19.9263835   7.8946704
  16.2161386  19.9464631   6.7796350  39.8235345  25.4776359  15.2022994
  39.4526005  26.3581586  15.2598917  39.3383288  25.0593877  14.4910502
  97.8063583   8.7044752   9.2411244  98.3657265   7.9848343   9.5334589
  97.5503540   9.1517395  10.0477540  36.4148569  18.1288421  23.5369182
  36.6734457  17.2890067  23.9164424  37.2362733  18.6103570  23.4386969
 106.4481735  21.2736344  50.6310892 106.7445564  20.3902793  50.8503532
 106.1602497  21.2105203  49.7204065  11.1883712  18.9401293   0.3965800
  11.6900897  18.2380569  -0.0176718  10.3295267  18.9012361  -0.0242567
  90.3627110  97.1081543  20.3537941  90.7350349  97.6856899  19.6874213
  89.5225620  96.8310547  19.9882615  40.4053688  40.5801105  83.2285404
  41.2828732  40.6649542  82.8556919  39.9418545  40.0033569  82.6213074
  37.3605013  75.2027369  90.1425457  37.0302296  76.0873508  90.2994537
  38.3114600  75.3052473  90.1051617  84.6661377  69.4668245  84.1355133
  85.1307774  69.0257645  83.4243107  84.2180157  70.1985788  83.7112999
  45.0384378  81.8449211  85.2982998  44.1759205  82.1352863  85.5949116
  45.6259823  82.0609188  86.0224342  34.7788334  29.2316318  26.7252469
  35.2329326  28.4711051  26.3624477  33.8536644  29.0680218  26.5421462
  61.8371439  71.1842537  76.5017462  61.3845110  70.3408432  76.5054750
  61.1444426  71.8284750  76.6479588  53.1254625  60.3548670  82.7039528
  53.7019873  59.5984030  82.5961781  52.4132490  60.0361490  83.2583904
  36.0423660  23.8333440  18.0131626  35.7829332  22.9717350  18.3395886
  35.2184057  24.3107176  17.9160106  27.1512556  43.9230108   9.5334524
  27.0376182  43.3661509  10.3036630  27.3235202  43.3104849   8.8183528
  29.5373321  46.4154339  83.7329292  28.7518096  46.2533331  83.2105255
  29.6037126  47.3693609  83.7759686  31.0230875  16.8864322   3.3634588
  30.6866932  17.4180114   4.0849110  30.7178950  15.9999728   3.5565373
  28.4388614  13.1090426  18.8026464  29.1592455  13.3645129  18.2264411
  28.3862185  12.1575201  18.7128389  46.4107132  44.7128582  80.8611107
  47.0927477  44.1606522  80.4788399  46.6090584  45.5934668  80.5426407
  39.2561316  14.9959600  33.9006424  40.0434828  15.1284635  33.3726716
  38.6775470  15.7171834  33.6530447  63.8529348  66.8334150  82.6293087
  64.2979383  67.3545313  81.9609928  64.1273975  67.2234535  83.4592342
 107.9943786 105.8618401   6.3019186 108.0866085 105.0914260   6.8624431
 108.4343944 106.5624063   6.7833996  38.7642050  13.3693027   2.4066035
  37.9032779  13.7849689   2.3591004  38.9601541  13.3305812   3.3427322
  66.1864758  51.1577845  82.7455711  66.9388676  50.5664730  82.7677727
  65.9581327  51.2895060  83.6657524  21.4531541  36.3421893  36.7726111
  21.0057402  36.3905597  37.6174259  20.7470059  36.3549566  36.1265302
  11.5705311  96.7240715  24.8836660  10.8233678  96.7109776  24.2854977
  12.3058128  96.4135456  24.3553090  61.7910767  15.3881109  20.0929475
  61.6269064  16.3258624  20.1924539  61.0936069  14.9681163  20.5963135
  90.0891399  46.2363243  89.8748970  90.6820202  45.5284548  89.6226215
  89.6529579  46.4852715  89.0600395  76.0923433  96.4159489  69.9685049
  75.3320742  95.8516693  69.8277473  76.4765692  96.5216541  69.0982008
  47.6166105  34.4922042  85.7662010  48.0283022  34.1639113  84.9668503
  47.9782915  35.3713346  85.8782291  83.5111713  54.5219135  81.9084740
  83.4654903  54.5985270  82.8614998  84.1292381  55.2028275  81.6427898
   2.1800609  95.9916115  11.5838790   2.7576843  96.0126591  10.8208978
   1.3044864  96.1371231  11.2255085  44.6721411  26.0656619   9.4580871
  44.2295980  25.4965711   8.8283861  45.3718853  25.5226946   9.8211014
  89.4789696  61.1346865  79.1989231  90.4292679  61.1651468  79.0882826
  89.1318607  61.5267658  78.3976603  74.7667217  55.8225918  87.9649258
  75.2345371  56.5111828  88.4373856  74.6749163  56.1626959  87.0748997
   8.7303054  67.8606653  57.3015738   8.1751913  68.3674765  56.7089367
   8.2471472  67.8451777  58.1277418 112.0844460  14.6190190   1.6861582
 112.4108601  15.2223206   1.0185427 112.2702599  13.7486207   1.3338621
  -0.0088806  83.1086063   6.9806767  -0.2086175  83.2394028   6.0537308
   0.9460300  83.0515671   7.0141935 102.8381824  58.4155655  79.1846752
 103.1298542  58.0806208  78.3367538 102.2468281  57.7408075  79.5181799
  91.2132168  94.3622303  15.0272512  91.1092663  95.3127193  14.9826038
  91.1378765  94.1565609  15.9590530  62.4660349  62.6680136  88.6880970
  61.7608929  62.4614859  88.0746174  63.0872774  61.9463444  88.5906887
  55.4685736  58.5342503  82.9479790  56.1041641  58.8581991  82.3097610
  56.0004091  58.1114292  83.6222267  21.2833643  11.0754502  33.9010978
  21.5494871  11.9897485  33.9984059  22.1018100  10.5813909  33.9488888
  89.4154549  80.0115681  14.0369081  90.1235580  79.9662304  14.6793711
  88.6185265  79.8726845  14.5486200  39.3788385  61.3537455  78.6997128
  39.3353868  61.8730450  77.8967953  40.3154993  61.2496424  78.8672304
  37.8092980   6.4890867  20.1358318  37.2471166   7.2633177  20.1632166
  37.6386023   6.0397494  20.9635949  62.5737429  76.9368696  71.7305374
  62.5228453  76.8366241  70.7799625  61.8552732  76.4011145  72.0666885
  52.6216984   3.3812490   5.4245394  52.8697920   2.6410088   5.9783685
  51.9636488   3.0241919   4.8281270  70.7330513  73.9343500  74.4968128
  70.7791471  73.4403467  73.6782360  70.7614756  74.8516750  74.2248917
  44.6068811  26.4974737   5.5292219  43.6685991  26.3130045   5.4865396
  44.7996950  26.9496131   4.7078651 106.1489964  99.7647476  27.4565291
 106.3448238  98.9893246  26.9305992 106.9062328 100.3366756  27.3311591
  41.3302803  17.4212098   6.7350680  41.8396807  18.2013297   6.5156239
  40.4696369  17.7590191   6.9828659  30.0433111   3.2152948   6.5004927
  30.2198648   2.6599184   7.2598469  29.3106246   2.7882567   6.0566020
  69.2337990  54.2515945  91.3397598  68.6646032  53.5594034  91.6760826
  68.6835098  55.0348043  91.3387012  24.9069977  21.9827294  27.0475245
  24.0746236  22.4331737  26.9044018  25.4719496  22.6444888  27.4464464
   9.4292313   5.8692175  15.3863096   8.9503467   6.4140147  16.0108876
   8.7672454   5.5932480  14.7523963  36.1140800  62.9809618  88.5710049
  36.4813471  63.8525581  88.4237766  36.7635369  62.3820353  88.2026005
  97.2618103  51.9786453  87.8482151  97.2949219  51.0850859  87.5066090
  96.4793110  52.3588371  87.4489975  35.9849977  50.3994226  88.2050705
  36.6620970  49.8536968  88.6050129  35.2950716  49.7832155  87.9590511
  45.7556057  11.6826415  12.2055626  45.3714991  10.9544706  11.7172384
  46.6222811  11.8009973  11.8168449  35.9097910  56.1998081  83.8117695
  35.7438803  57.1392965  83.8896179  36.2162232  55.9379578  84.6799660
  61.2141418  60.0776911  91.3559151  60.6497335  60.7496357  90.9735966
  61.5843391  59.6185112  90.6020355  33.4044743   0.7411109   3.5521725
  34.2967391   0.9167615   3.2534400  33.4896278   0.6092339   4.4964126
  28.0106378  68.9897919  90.8005333  28.4236741  69.5428181  91.4637089
  27.9245996  68.1345177  91.2216377  36.4592934  35.0890470  87.6441574
  37.4030852  35.0662875  87.8021812  36.3167262  35.9036493  87.1621513
 100.7272911  88.5858727  74.3595362 100.6978989  88.3261681  75.2803659
 100.1115417  87.9960537  73.9245653  40.5229998  25.9161305   1.5733878
  40.2933502  26.1506319   2.4725555  40.9568024  26.6954565   1.2259663
   7.8088528  96.2014103  40.5337763   7.4096829  96.0122681  41.3829660
   7.1761453  96.7682552  40.0926447 110.3585052   2.9280555  76.8791819
 110.3927803   3.5129157  77.6361465 111.1383438   2.3796444  76.9647217
  40.8623505  39.7308540  25.2157497  41.2596369  38.9636898  24.8036194
  41.5508318  40.3956270  25.1982713  41.8639183  15.4542470  21.9694114
  41.3183641  15.4963064  21.1840248  42.6300049  14.9464810  21.7019796
  32.7429223  11.6932642  14.1055846  32.0490170  11.1277330  13.7666106
  32.8750038  11.3968337  15.0060928   2.5057158  66.3426447  73.7213469
   2.6234818  65.5848932  73.1484795   2.0523989  66.9863319  73.1769228
  67.9957294  65.6553793  75.6241798  68.0124855  66.2918758  74.9094629
  68.8802671  65.6816196  75.9890556  65.9696054  62.9097652  81.3354301
  65.7331038  63.4616280  80.5899429  66.4524460  63.4927130  81.9213200
  72.3604584   4.5203251   8.9300638  72.8794622   3.8531214   9.3791831
  72.4452925   5.2996534   9.4793200  53.4489775  17.5576043  21.9210792
  52.9201269  18.3549249  21.8923330  53.6489391  17.3696339  21.0040641
   1.8748496  29.3199039  23.2474828   1.9959585  30.0502491  22.6407218
   1.7490554  28.5575080  22.6825404  50.2235889   7.1158957  26.2227917
  49.4116640   6.7074096  25.9225440  50.9164476   6.5488118  25.8842683
  34.6002746  14.2255700   1.0680933  33.9599872  14.9190104   1.2274881
  35.2117920  14.2910016   1.8015747  98.3478260  98.8755608   7.3944235
  98.1618500  99.0777779   8.3113503  98.5161591  97.9333115   7.3863316
  28.3983564  19.5917463   9.9449313  28.1404424  18.6922133  10.1463079
  29.0200377  19.8228705  10.6350970  84.1441822  77.2079897  86.8121052
  84.9631119  76.7161894  86.8730164  83.9974689  77.3134470  85.8721161
  53.5603285  32.3812723  82.5529385  54.1327763  31.7121053  82.1777725
  54.1256046  32.8738356  83.1479836  37.7148843  40.7135582   4.0641609
  38.3578038  40.3270102   3.4696314  38.2392550  41.1975098   4.7021711
 107.8949547 104.4197559   2.2451141 108.0069447 105.1574421   2.8446996
 106.9578266 104.2270184   2.2749250 100.9779549  28.1725979  14.7651839
 100.2896595  27.5368881  14.9610281 101.6995239  27.6460218  14.4212544
  39.5327473   2.3144558  35.1901031  39.1323066   2.1397328  36.0417795
  40.4400015   2.0254916  35.2882051  25.2096224  98.7536240  82.2409630
  25.1263189  99.0797806  83.1370163  24.3265271  98.4678841  82.0070076
  58.2185057  70.9520610  91.7333519  59.0842560  71.3602383  91.7433137
  58.2621434  70.3152437  91.0200558  63.6203671 102.8395462  84.2985725
  63.2920313 103.6342430  83.8780022  64.4597387 103.0989552  84.6785641
   0.6929831  88.1345272  20.5516863  -0.0460378  88.1849957  21.1579299
   0.3283771  87.7341461  19.7623897  49.8152637  46.5089893  73.3417320
  50.5461025  47.1271133  73.3364487  49.0348101  47.0612574  73.3877659
  89.1080952  37.7986741  83.7523079  89.3164635  38.5921049  84.2455387
  88.1767178  37.8815675  83.5476208  29.8316860  11.4522052  24.0050960
  29.9994087  11.3614607  24.9431062  30.0588655  12.3609209  23.8079739
   4.6253020   8.1212914  28.7930918   4.3885618   8.9329618  29.2418408
   5.5422348   8.2425588  28.5465956  58.0389592  27.0672338   0.9602436
  57.9087445  27.9330365   0.5733761  58.7155912  26.6618888   0.4179463
  27.3317099  48.0717373  61.8501663  27.6938701  48.9553738  61.9154644
  26.8749046  47.9381371  62.6806545  10.0894189 104.5028782  32.1437073
   9.7263557 104.4867802  31.2581801   9.6786517 105.2621651  32.5572109
  14.1651261   9.8360753  19.5756042  13.2362914   9.6448541  19.7057271
  14.5378613   9.0117282  19.2629516  63.1136131  49.3582535  90.3770733
  63.1232834  48.4068012  90.2727890  62.2093058  49.6104765  90.1904011
  32.0569921  59.4689941  76.0649872  31.1788154  59.1494608  76.2721968
  31.9083619  60.2396393  75.5170441  91.9255924  31.0445857  68.9737034
  91.6271305  31.8703628  68.5925913  91.3046360  30.3925896  68.6488247
  32.2103429  20.5657935  15.1345992  33.0029774  20.9899020  15.4633796
  32.0260525  19.8756826  15.7717931  92.3068714  77.5156879   2.9867929
  91.3778114  77.3403263   3.1362164  92.4831104  78.3138323   3.4849292
  69.2626333  61.6225624  88.8748932  68.6315632  62.3311281  88.7487221
  69.4174337  61.2801218  87.9945564  33.1859446   7.5775278  18.2705128
  34.0774417   7.7244538  18.5865426  32.9157019   8.4237486  17.9139853
  85.4639816  92.6703358   2.2047552  84.8133087  93.3485985   2.0236126
  85.0613594  91.8616009   1.8884012 109.6244907   7.1250963   2.2706281
 109.3330860   7.8691584   2.7975866 110.4808617   6.8964428   2.6319921
  13.2948780 105.1999950  24.7306633  13.7671924 105.8586121  25.2399564
  12.8910530 105.6935215  24.0168023  98.3337975   0.2199752   1.5581042
  98.8088226   1.0503519   1.5256071  97.4203968   0.4717334   1.6943188
  80.8151054  63.1617641  80.7574654  80.9629250  64.0836716  80.9683418
  80.4199600  62.7954769  81.5486240  48.6047173  60.5448866  83.9284515
  49.4008684  60.7366562  84.4240284  47.9916382  61.2341118  84.1840553
  83.3969116  66.7289400  75.3154945  82.7648258  66.0422182  75.1030779
  82.9585648  67.5429487  75.0675488 101.7062759 100.3126335   6.6962314
 102.1567440  99.6047401   6.2355661 100.9284782 100.4865265   6.1661118
  54.8111629   5.0486237  37.6966214  54.1674376   4.8525566  37.0158815
  54.8064899   6.0035229  37.7627921 111.7172323  52.8339340  91.2659929
 112.6303206  52.7696564  91.5459361 111.4374290  51.9257786  91.1511362
  74.3681765  69.8783255   9.0217417  74.8737526  69.3295336   9.6212852
  73.5817909  70.1109552   9.5154184  45.4075813  15.0351524  22.7248335
  45.7672501  14.6373677  21.9319654  46.1467552  15.5012953  23.1154299
  37.7831340  17.8957903  51.6848183  37.8988361  17.5030482  50.8196020
  38.3591604  18.6602509  51.6798162 106.7804630   0.1970929   7.8708178
 107.3331792   0.4697866   7.1384400 105.9342678  -0.0031119   7.4706960
  13.7409437   5.1650476  42.7423382  13.8443589   4.3388492  43.2144976
  13.1908929   5.7004780  43.3141708  37.6251459  10.7395828   7.6266843
  37.1551228  10.5720067   8.4435254  37.7553415   9.8723561   7.2430211
  49.4576597  36.9391298  85.4665756  49.6949673  37.8405714  85.2490520
  50.2960491  36.4880323  85.5657959  61.7153168  35.5534887  17.8476250
  60.8811522  35.1505899  18.0886137  62.1034765  35.8177710  18.6817217
  44.5601749  95.5620003   9.4174469  45.2091408  95.1088142   8.8792127
  44.2031193  96.2391090   8.8427591  40.1192236  46.5409327  77.1897793
  40.4229498  45.7014275  76.8445158  40.5736160  46.6340590  78.0270910
  18.8970757   2.0654771  12.6343083  18.6393237   2.8374764  12.1305096
  18.8071907   1.3373117  12.0195496  39.7835708  32.0917892  22.9572535
  40.5787802  31.5766644  22.8211546  39.5170045  32.3578405  22.0772576
  61.4749765  64.6792316  86.0327530  61.6206598  64.9580479  86.9367790
  62.3283529  64.3590832  85.7403660  39.8934841  17.9286861  61.0552549
  40.7992601  18.0937755  61.3170767  39.9528050  17.6754379  60.1340723
   9.6249676  30.4966354  11.2724495   9.1428977  29.7178888  10.9942484
   8.9601713  31.1831713  11.3267386   2.1749642  38.1657505  20.0564408
   3.0982402  38.1268597  20.3060031   1.7258836  37.6382947  20.7170081
  55.5126762  37.5640249  82.4884510  55.9550333  37.9736400  81.7449665
  55.4216146  36.6451168  82.2363758  97.0910072  32.1516109  89.0541077
  96.6285133  32.5774837  88.3323288  96.4134407  31.6549563  89.5128727
  87.0074177  70.5693007  32.9383063  87.2686768  71.1822462  32.2510862
  87.8207874  70.1331186  33.1920862  15.3049469  23.6781168  10.8122265
  14.5008504  23.4363961  10.3526270  15.7518363  22.8458929  10.9668946
  36.5347028  10.7362747  31.2290859  36.8510938   9.8460585  31.3828516
  36.4004850  10.7826006  30.2824759   7.4922979 106.0897541  18.2768106
   7.6830345 105.3558731  18.8609993   8.3446252 106.3396072  17.9199612
  69.6564579  72.5730753  91.3922215  69.1627789  71.7530394  91.4000607
  70.5192184  72.3300362  91.0563564  57.1026564  66.0195303  77.4395609
  57.1551371  65.7885599  78.3669949  57.9913187  66.2909317  77.2096634
  71.7636013  81.8183041  87.4906063  71.8021011  82.7640343  87.3480225
  72.6790905  81.5508270  87.5716209  96.0486698  89.4696617   9.6165687
  95.7003975  90.2150631   9.1273689  95.9264278  89.7080708  10.5355072
  14.6042943   4.7959974  10.4058373  15.0643599   4.9531856   9.5812994
  14.8128223   3.8883966  10.6272149  74.5879221  81.4233780  82.2854137
  75.1801109  80.8004093  81.8641472  74.0201950  81.7298603  81.5783119
  96.2565327  80.4917908  28.2465291  96.8217564  79.7550678  28.0141497
  96.1697388  80.9922886  27.4352336  31.5902638  12.5277162  19.7923172
  30.7310128  12.1577883  19.9949861  32.1335411  12.2986865  20.5463910
  73.2353735  62.1088839  86.6679192  72.9857826  62.6482916  87.4182320
  72.5276041  62.2353363  86.0360146  61.3538742  78.4748030  87.9693699
  61.9498873  78.9607906  88.5392952  61.4094830  78.9239645  87.1259308
  34.1345835   8.0323839  14.8083389  33.8355350   7.4185652  14.1374981
  33.6965609   7.7441055  15.6091273  11.0436177   5.9194517  60.6736326
  11.2178540   5.0703216  60.2676153  11.6801250   5.9794199  61.3860226
  38.0950236  87.5826168  72.5079393  38.9774084  87.6067162  72.8781462
  37.7895093  88.4883785  72.5579023  49.7721100  31.8418097  69.6107006
  49.3083715  31.9893050  70.4349709  49.4602680  32.5380230  69.0325356
  19.2834818   4.7069189  35.4273438  18.6255693   4.8196170  34.7412801
  19.9148238   5.4092979  35.2714515  35.4098415   6.6213953  11.0518777
  35.8148241   6.7132902  11.9143033  36.0918498   6.2276804  10.5077386
  32.7046728   1.1512826  11.7130244  33.5922837   0.8821578  11.4764893
  32.7173328   2.1058814  11.6436517  71.2435389  91.0586452  71.6906738
  71.5729332  91.8804359  72.0545244  71.9660902  90.4407787  71.8019867
  78.5764885 100.5750179  23.9023280  77.9871416 101.3292694  23.8996744
  79.4143534 100.9267902  24.2031026  64.0594149  18.8974226  85.2206039
  63.2463789  19.2042243  84.8192596  63.8067818  18.6408854  86.1075020
  93.3942604  51.3733482  80.7371807  93.2765102  51.7892075  79.8831177
  93.9778137  51.9643927  81.2129498  17.3563621   5.9282129  -0.1932731
  16.7080352   6.0082214   0.5063709  17.5499484   4.9916951  -0.2344623
  13.8085985  32.2366214   9.8067415  13.9603615  31.2922192   9.7706044
  12.8779638  32.3374796   9.6067905  88.7618637  66.0191727  86.8023014
  87.8145123  65.9743500  86.6729450  88.8735199  66.5982103  87.5562859
  56.8018341  52.5480747  82.2884369  57.5784302  52.9165649  81.8673134
  56.2112474  52.3424053  81.5637684  52.9072762   2.6128799  12.3417103
  52.1162653   2.7886659  12.8512514  53.4112453   3.4249866  12.3939669
  77.9789400  53.6883926  85.1993465  78.4486914  53.0357504  84.6800995
  78.6631775  54.2734861  85.5244827  51.3022661  15.0035846   3.4194854
  52.1093559  15.4941070   3.5751408  51.4581347  14.5410264   2.5960922
  17.8101489   0.6240527  -0.2628055  17.9013297   1.5418212  -0.0066486
  18.0801341   0.1311605   0.5120453  99.0397644  93.8085842   6.3858157
  99.1944981  92.9388809   6.0171664  98.7392998  94.3332767   5.6437552
  71.3207722  75.0426960  77.0064592  71.3570404  74.3253660  77.6391935
  71.1187458  74.6171093  76.1732149  22.6128840  74.9577379  31.8306875
  23.4464574  74.5531750  31.5904522  22.3569131  74.5161629  32.6404572
  57.9333878  13.3799207  31.2539268  57.9129601  13.8193023  32.1040773
  58.6359596  13.8187885  30.7743192  87.1314621  52.3132515  83.8773632
  87.5236130  51.7145634  84.5129871  86.7791653  53.0282021  84.4074345
  73.6844587  54.4719505  91.4196301  73.2903337  54.3072557  90.5630207
  74.5541716  54.8185968  91.2204647  37.9268885  34.8600435  83.1739521
  38.4316683  35.3768516  83.8019180  38.5209417  34.1576576  82.9094028
  80.0074577  26.6962671  14.7191119  80.7937431  26.8828940  14.2061329
  79.8067427  25.7806420  14.5252657  24.6280193  33.0765152  34.8296094
  25.1334763  32.5794053  35.4727483  24.3903017  33.8844848  35.2844787
  55.6119919  77.2899628  15.5096447  55.5960274  78.2463312  15.5462635
  55.0348520  77.0685911  14.7787988  38.9905524  13.0421841   5.0383931
  39.2656374  13.8892865   5.3890747  39.5469809  12.4052691   5.4866761
  42.0836735   6.3224924  23.3366179  42.1372652   6.9939113  22.6565027
  41.9508171   6.8131912  24.1476631  19.9438965  10.5214775   2.1736388
  19.3529272  11.2696493   2.2586419  20.4855084  10.5532658   2.9622310
  10.8918571  26.5222692  44.6354532  11.5370893  26.9277716  45.2146530
  10.0513625  26.6801047  45.0654364  34.1554284   3.1449217  18.4899449
  34.5852470   3.6859021  19.1523862  34.4123149   2.2491613  18.7087011
  55.6312752  17.9602742  23.6468267  54.7016239  17.7395582  23.5896254
  55.6615114  18.9071321  23.5098028   8.8326705  19.6218169  11.3681507
   8.1058526  20.2446723  11.3727582   8.6820108  19.0836787  10.5910134
  55.9509277  41.3410425  38.6340141  55.2738285  41.7431641  38.0898976
  56.5816450  40.9856272  38.0078268  10.4352701  34.6417284  32.6044226
  10.4556370  35.5811548  32.4219537  10.1748514  34.5818591  33.5235691
  13.7821901  11.8159378  14.2839277  13.6623228  12.5390804  14.8994994
  13.8337123  11.0365081  14.8371601  36.2523389  27.1967340  33.1089449
  36.2539864  27.9500198  32.5183606  36.1674762  26.4389420  32.5303435
  62.5737143  54.5336437  84.9141884  61.6943312  54.3194342  84.6026993
  62.8333235  53.7759495  85.4383469 108.5855770  34.6297026   3.8308787
 109.0942097  33.9272809   4.2359987 107.6743984  34.3541956   3.9312896
  72.1132374 102.9870987  76.1212349  71.6390562 103.3489418  75.3726101
  71.5754175 103.2166004  76.8790674 102.4889374  85.6253052  85.3565979
 101.8596458  86.0965919  84.8106003 101.9946575  84.8838902  85.7062054
  92.0334816  71.4852762  88.2377625  92.0417690  70.5369997  88.3678913
  91.4617825  71.6182899  87.4816608  36.9336152   2.9124445   6.1500359
  36.1716771   3.2846522   5.7060289  37.3145604   3.6481786   6.6294187
  27.9370666  31.4678025  14.1253078  27.0133877  31.5451169  13.8864172
  27.9540563  30.7884812  14.7994494  89.3130016  53.0089760  76.3731003
  88.4971237  53.5093498  76.3873053  89.5202351  52.8625011  77.2960424
 105.4726124  73.9473820  83.4409714 105.9674644  74.7089052  83.7433529
 105.2413177  73.4782982  84.2426491  65.4239511  18.1435549   6.4451772
  65.5999947  17.2529578   6.1417335  66.2903309  18.5376990   6.5465266
 105.8484840 100.0282764   3.3231804 106.5899754 100.6327915   3.2918391
 106.0685539  99.4154644   4.0247962  64.0778303   7.9324675  11.2666917
  63.8693333   7.1722019  11.8096077  63.8802814   7.6504117  10.3735781
  23.0620313  39.1944838  10.1101613  22.8114080  38.8899541   9.2379916
  24.0166211  39.2568421  10.0769436   3.2884088  66.0197544  81.3662338
   3.0222109  65.1851654  80.9804440   2.5508028  66.2732029  81.9211483
   7.4254566  32.8815627  30.7750320   7.5115693  32.3425388  31.5613341
   6.7660677  33.5363579  31.0045528  13.1014371  17.3437035  13.2154214
  12.1830034  17.3418915  12.9457760  13.2440734  18.2196915  13.5739338
  91.6013432  66.3640547  64.1168261  91.4139557  66.6946411  64.9953604
  90.9819984  66.8244267  63.5505247  53.3299351  56.7948246  83.3010578
  54.1069651  57.2821331  83.0272198  52.6661015  57.4676991  83.4520245
  35.4117870  27.2111392  28.9477897  35.4916239  27.4480510  28.0238152
  34.4724822  27.2563982  29.1263580  37.3565888  44.2984056  14.9687707
  36.4256954  44.0985680  15.0674307  37.5568748  44.0651321  14.0622926
  50.9202623  12.2937727  12.0335138  51.0891676  11.3519800  12.0064664
  51.6173124  12.6774931  11.5014315  11.6398072  44.3283510  20.8708954
  11.7307854  45.1806450  21.2969756  11.8468618  44.4967985  19.9516642
  68.5458946  65.8948183  90.1573658  68.2825899  66.7296410  90.5446339
  69.5027733  65.9166908  90.1688004  53.4160328  39.5824981  16.8553174
  52.5132895  39.8619032  16.7029512  53.9491129  40.2431107  16.4129889
  69.7013617  82.6825047  84.2354107  68.9393044  82.8783703  83.6903095
  69.3562555  82.6526546  85.1277351  30.4544258  30.9784675  12.8969908
  29.8102760  31.3826060  13.4783483  30.1928520  30.0587940  12.8521359
  47.3433352  95.5196762  16.0565400  47.3173904  95.2774143  16.9822133
  48.1317568  95.0941277  15.7195985  84.1222095  70.5045080  72.7125502
  84.6035290  69.7992897  72.2798491  84.1544724  71.2324667  72.0918560
  52.2736692  78.9353704  87.9428482  51.6613197  79.6594143  88.0733109
  52.5754213  79.0365887  87.0401096  63.5961485  68.5557461  57.2763348
  62.8193569  68.0815315  56.9797802  63.2753658  69.4324732  57.4877119
  82.3911476  80.5226421  88.1108665  82.1947289  79.6185637  88.3564281
  81.6774368  80.7717991  87.5236988  26.0459328  26.3788748   8.0328286
  26.3881207  25.5186367   7.7896643  25.1150250  26.2285876   8.1973189
  96.1647224  77.8425503  86.6617012  96.2801266  78.3319902  87.4761677
  96.7889977  78.2386494  86.0537338  12.3301649 103.8530922  28.0300975
  12.6059663 104.5747757  28.5951972  11.6929090 104.2459965  27.4336386
  70.4532862  20.4234910  12.7776718  70.3779840  21.3055849  13.1416404
  69.6092653  20.0134993  12.9667997  37.9434967  43.5068703   6.5386641
  38.5319138  42.8634167   6.1437446  38.5017228  44.2634106   6.7182726
  62.0019150  86.5317726  67.9864168  62.0541620  85.9716988  68.7608910
  62.0302248  87.4234486  68.3333254  42.5658846  13.2959092  13.8157284
  43.1231403  13.5819304  14.5395303  42.2653246  12.4247789  14.0746248
  93.0133152  13.8380122  78.1182575  93.6504745  14.3764615  77.6488686
  92.9755497  14.2209566  78.9947033  27.2685766  49.8774147  53.7563801
  26.7611551  49.2722082  53.2155657  26.9628143  50.7460308  53.4951353
  27.9080367  13.8720262   3.8698733  28.8411665  13.6799777   3.9627197
  27.6205587  14.0968013   4.7547826  76.7413616  76.6526127  87.7389145
  76.2980890  75.8246374  87.5539875  77.5538349  76.3969755  88.1756878
  92.3353577  31.5905499   1.8935804  92.8770351  31.7638779   1.1236592
  92.0355129  30.6889749   1.7774308  67.7641821  17.6616848   8.8270116
  68.1093693  18.4709561   8.4499764  68.1906509  16.9644010   8.3288616
  77.4202061  97.7877712  90.9142208  77.6738834  96.9626522  91.3278198
  76.5346336  97.9550266  91.2367344  63.4404802 102.9307365  56.1165524
  63.0555868 102.1035576  56.4061451  64.2772484 102.9803371  56.5787077
  19.8556733  40.9317398  65.9607363  20.3373313  41.1441708  65.1612902
  19.5697474  40.0269604  65.8348179  95.9487724  84.6035767  76.2273359
  95.8648014  84.7635365  75.2873421  96.5166283  83.8355541  76.2898111
  16.8370569  31.8996358  25.0827789  17.4038899  31.8689013  24.3120742
  16.0749900  32.4049139  24.7996187  39.4477510  21.7934728  14.2952490
  38.8348293  22.1826124  14.9190509  39.0980744  20.9178114  14.1304040
  35.0042510  21.3160801  13.8493621  34.3668294  21.7743278  13.3016992
  35.0556326  20.4374695  13.4730148 105.5718517  15.7072496  36.6949296
 105.0236225  16.2871993  36.1664081 105.4089832  15.9806681  37.5976753
  62.7154016  99.4599152  75.9828377  62.6800394 100.4049397  76.1308336
  63.6398792  99.2784023  75.8136559  18.4764493  14.8195195  22.0534205
  17.9923093  15.3951955  22.6453996  17.8067219  14.4493902  21.4783525
  54.3531752  21.3227201  12.2296929  53.6546612  20.6683278  12.2387910
  54.8462725  21.1578894  13.0333829   1.9192468  30.9963369  34.7367215
   1.6398022  31.7537045  35.2510524   2.8415376  31.1649013  34.5438552
   4.9952284   3.3696324  89.0802479   5.1739389   4.2442247  89.4257641
   4.5701724   3.5273939  88.2372379  77.6217747  42.9745007  84.9050426
  78.1118202  42.1673489  84.7482204  78.2941914  43.6324930  85.0815010
  89.2318058 102.1199703  50.7904768  90.1216602 102.4581242  50.8906841
  89.2032623 101.7824078  49.8952293  74.7319603  72.2725296  84.8135948
  74.8765373  72.9424047  85.4818630  73.9464903  72.5625467  84.3497467
   0.9200937  42.5585890   6.3251537   1.4051420  42.2192478   5.5729508
   0.4292948  41.8051720   6.6533488 103.2696438  83.7139893  49.9809313
 103.9041901  84.3404198  50.3290272 102.7198505  83.4880066  50.7311964
 100.8235931 106.2491608   3.2083485 101.7476940 106.4935207   3.1579083
 100.8119678 105.3134060   3.0071804  81.3939667  59.1789722  83.4950829
  81.1149311  60.0933027  83.5437870  82.1252441  59.1186571  84.1097641
  25.7505655  41.9696045  23.4369516  24.9748707  41.4500904  23.2256961
  26.4078832  41.3239574  23.6963868  36.2000036  45.9934855   1.5570767
  35.4517698  46.3130999   2.0612825  36.5033221  45.2246332   2.0398773
  67.8918028  90.4024506  87.8386688  68.7690306  90.5708504  87.4946594
  67.9781961  89.5817661  88.3236885   8.5812616 104.5530987  22.3608232
   7.9642886 103.8975143  22.0355844   8.5034174 104.5034122  23.3135581
  35.7691765  61.5283632  85.1103401  36.1137080  61.3665438  85.9885979
  35.4218626  60.6817436  84.8295498  41.9146967  72.2461367   1.1770308
  42.4974251  72.6279306   0.5206093  41.1365891  72.8033447   1.1596264
 105.7828999  66.9475937  64.6852779 104.8265362  66.9417667  64.7248697
 106.0091496  66.1311626  64.2397594  66.5264750  64.5627737  91.6693115
  67.2831774  64.8400211  91.1528111  65.9401131  65.3192949  91.6602039
  84.3870831   7.7574736  75.9886885  84.2516804   6.8106639  75.9506130
  83.5090542   8.1286663  75.9019375 105.4220867  36.2851977  13.0735433
 106.0777092  35.5903864  13.1338048 104.7144604  35.9974670  13.6503458
  64.7670937  83.4670544  84.0245342  65.0299168  83.5612965  83.1089687
  65.3744173  84.0279579  84.5070076  91.1315918  97.2924995  13.7943542
  91.3752174  97.8534412  13.0580020  90.5424404  97.8319550  14.3217242
   0.4482679  74.7139549  88.1991673   0.3521306  74.1153860  88.9399147
   0.7301073  75.5394602  88.5932922  76.5784740  69.2758322  58.4954023
  77.5202274  69.1179943  58.5618830  76.4903402  70.2271652  58.5539675
  41.8918228  13.1897151   8.7490439  41.7077875  13.0888319   9.6829522
  42.4810600  13.9425254   8.7009943  91.8911457  64.1713524  85.0965023
  91.3316727  63.8904572  85.8205986  92.2083187  63.3557892  84.7085762
 105.4796505  88.5947037  78.1317329 105.5047321  88.8499546  77.2095394
 106.3393402  88.2073975  78.2965231 112.1936321  16.2510669   4.2825636
 111.4762592  16.8835509   4.2428678 112.1606255  15.7982683   3.4398794
  18.9291191  26.3141418   8.1639147  18.8820195  27.2599196   8.3036256
  18.3643818  25.9434366   8.8420600  34.2124724  56.7712784  17.5784647
  33.8255262  56.6098118  16.7179799  34.6537495  57.6158619  17.4879789
  91.7149830  71.2224722  65.7280254  91.0329437  70.7102156  65.2936792
  91.2394428  71.9179249  66.1823797  45.4404211  35.1606941  12.7905560
  45.4021931  36.1169839  12.8073001  44.8063898  34.8840261  13.4521353
  77.6462984   1.5070477  89.4745636  78.0651665   2.3614670  89.3708897
  76.8933630   1.5362172  88.8842487  10.4902053  12.4299252  20.1927185
  11.4217055  12.4891639  20.4049206  10.0546885  12.3638964  21.0425401
  94.5958805  74.1927671  87.2142410  95.5408287  74.0792894  87.3163223
  94.2827415  74.3980026  88.0951786  10.8368313  54.0434122  12.7024293
  10.0429201  54.5719814  12.7833891  10.5473316  53.2414865  12.2673035
  82.6212692  94.5478725  63.7446547  82.3278236  93.8089943  64.2777348
  83.2609177  95.0006485  64.2942667  68.7459517  77.3572206  58.8917017
  68.9990759  76.5211630  59.2830706  68.8092613  77.9868078  59.6099234
  47.9087496  56.0618353  24.5902133  48.2392788  56.6560698  25.2639079
  48.6798763  55.5729961  24.3027544  17.6180911  24.9582267  10.2291071
  18.0696476  24.2990446   9.7020334  16.7652059  24.5683527  10.4209840
  23.9250135   8.4271008  30.1633859  24.8181796   8.5369581  29.8371696
  23.9962173   7.7454013  30.8315516  90.1675797  86.5063381  83.8498974
  90.5038071  85.6218052  83.7057304  89.5163918  86.6305351  83.1594181
  47.7561092  88.7594891  87.4046421  47.7925920  88.2486153  86.5960026
  47.0123482  88.3953190  87.8846741  40.6782198  29.9072695   7.6595271
  41.5721607  29.6059847   7.4972588  40.5612421  30.6441092   7.0598489
  61.9385958  86.5309906  89.9041843  62.7039719  85.9562874  89.9163055
  61.2521076  86.0069466  89.4914436  93.0804825   9.3984413  88.2169533
  92.8462124   9.7644764  89.0698147  93.7203789   8.7152821  88.4171200
  35.5116653  32.0113635   8.3020669  35.2535486  31.5895271   9.1216165
  35.0162935  31.5470672   7.6273298  56.8231916  13.7768185  11.1485338
  57.0034504  13.1678391  10.4323757  57.6528502  13.8428438  11.6213393
  17.9488981  48.1592798   8.9815372  18.5544109  48.8363075   9.2835605
  17.7426386  47.6542521   9.7680706  77.1820974 101.4290047  68.8186550
  77.7781725 101.2255287  69.5394325  76.7803907 100.5892658  68.5957289
  40.9448242  26.8565559  22.4015260  40.0240850  26.6186905  22.2924590
  41.0235929  27.0915413  23.3260846   5.0639784  66.5414619  34.7374845
   5.8353925  66.5346813  35.3041458   5.4064012  66.3496208  33.8644576
  82.1355915  83.4129143  76.0280037  81.5303230  83.0578804  75.3769732
  82.0797157  82.8038025  76.7642689  85.1755428  71.7743063  78.2034922
  84.9854469  71.2823725  77.4046803  84.6344280  71.3590002  78.8750219
   3.2133162  13.0819857  21.3114166   2.4431106  12.6564324  20.9346938
   2.9899573  14.0126562  21.3253331  68.2041311  91.9939137  78.0014753
  68.3227587  91.0600185  78.1746387  67.3955250  92.2217560  78.4602499
  59.3428564  90.0125790  56.2323141  59.5285034  90.3080368  57.1236467
  58.7082386  89.3044376  56.3420153  13.6624169 101.7059517  22.3266101
  13.9643633 101.7015839  23.2349277  13.6697674 100.7845688  22.0673347
  56.3799047  11.6202819   2.7915326  55.4802513  11.9422817   2.8478780
  56.4961767  11.3946426   1.8686023  29.7516775  47.2856140   9.0016389
  30.6489825  47.2373343   8.6718750  29.4589019  48.1673002   8.7711149
  54.3070936  59.4500113  86.9137573  53.5844278  58.9483118  86.5365505
  54.7064447  58.8547707  87.5481415  58.8794565  69.3939114  81.8170357
  59.7562695  69.4362497  81.4354134  58.9458275  69.9004889  82.6264858
  58.9999914  92.6859856  75.8338451  59.2607498  92.4474716  76.7234278
  59.7997856  93.0263329  75.4329395  42.4807215  29.1505837  47.9565334
  43.0176258  28.9293218  48.7174606  41.5988445  28.8641500  48.1942034
  90.7124329  83.5462570  32.3302674  90.1031303  83.6963940  33.0530691
  91.3292980  84.2763901  32.3814249  91.0691643  69.8398018  81.8320942
  90.7927608  70.7506561  81.9329929  91.9258404  69.8009586  82.2573185
  85.7253647  86.9476986  54.9377966  84.8765469  87.3660183  54.7937822
  86.3650036  87.6396370  54.7695303 105.2778339 103.5928440   2.3011753
 105.1505852 103.4916687   3.2444704 104.4333744 103.3545017   1.9186603
  95.6693745  66.3182735  90.4380989  94.8605251  65.9129524  90.7506847
  96.3567448  65.6964493  90.6770325  22.9849958  15.4599774  23.4708548
  23.2575583  14.5657778  23.2650661  23.0040336  15.9158218  22.6293802
   8.8492268 103.1976223  16.0942185   9.5027095 102.5050068  16.1915469
   9.3610138 103.9861584  15.9139001  69.1504145  78.5527420  68.2780695
  69.3381548  78.4445095  69.2104149  68.7905979  77.7083063  68.0066013
  44.3466473  16.0979366   5.9754503  44.9932337  15.9258127   6.6599470
  43.5175467  15.7983315   6.3483554  19.2955089  20.1787806   8.1984884
  19.2480481  19.4503236   8.8176262  20.2185154  20.2208447   7.9484457
  59.8707199  57.2791815  87.4401855  60.0920391  57.3107672  86.5094662
  59.4735003  56.4169645  87.5627995  37.2076869   4.9459139   8.2077414
  37.3041558   4.4508466   9.0212733  36.9927883   5.8342987   8.4920329
  81.9260216  67.7844572  91.2241364  81.5872955  66.9841528  91.6253948
  81.3329029  67.9551363  90.4924965  18.8097095  25.0963306  14.5222306
  17.8804910  24.8684621  14.5515728  18.8416433  26.0091066  14.8086751
   1.7652009 102.2944832  13.9005029   2.0833567 103.1936836  13.8201594
   1.7992067 102.1113873  14.8394120  77.4469280  58.7043571  79.8204422
  78.2851934  58.8390255  79.3783903  77.3186731  59.4992733  80.3380203
  84.9448013  81.3102341  90.7512856  84.4552994  80.4919434  90.8351040
  85.8500767  81.0341930  90.6080437  69.7226572  76.5271854  82.0922089
  69.0249538  76.0607719  81.6318893  70.3595829  75.8477259  82.3133373
  67.6096058  63.8198185  88.6817455  66.6613340  63.9487457  88.6619949
  67.9339552  64.5148993  89.2543602  85.1719761  28.2968473   4.6822235
  85.1118660  28.8439488   3.8990909  84.3047619  28.3562398   5.0830305
  78.0796671   6.3612503  69.3136692  77.5990820   5.9002531  70.0012398
  78.5295486   7.0716649  69.7709990  28.8444090  50.0898886  29.0603161
  29.6470284  49.6999931  29.4067478  28.3226967  49.3430090  28.7666750
  38.6248994  48.2562208  32.8265023  38.3898830  47.6587296  32.1165729
  38.0542493  49.0142918  32.7003384  18.7619483  98.0390549   1.2704875
  17.9170799  97.5898743   1.2963164  18.5862398  98.9015770   1.6465470
   5.0599974  23.5746789  18.3033109   4.7901338  24.3727279  17.8488660
   4.4425896  22.9076648  18.0030894   9.9878949  15.5113637  11.5675366
   9.6730167  15.7961285  10.7096374  10.1303554  16.3243270  12.0523334
 100.8478737  94.0112400  91.0138035 100.0258350  93.9088917  91.4933968
 101.2439632  94.8005104  91.3831329  14.9180949  32.7491689  21.3023067
  14.5186698  33.6076188  21.1617494  15.7837903  32.8190160  20.8999062
  26.6502666  33.8826823   5.0350767  26.6306877  32.9401493   4.8693123
  26.6283798  34.2795229   4.1642892  64.8744774  62.5556183  76.1496496
  65.6153202  62.4028587  76.7362070  65.0324535  63.4269238  75.7861900
  54.0595770  86.3617706  92.0158672  53.8230848  85.4439259  92.1494865
  53.9280558  86.5090942  91.0792637  27.8100181  14.7521675  24.5529890
  28.7556171  14.6510339  24.4441414  27.7171993  15.4208386  25.2315879
  88.5622787  68.7517643  80.6034565  89.4361877  68.9722776  80.9257603
  88.4155750  69.3565273  79.8761463  86.7467022  67.6441526  78.2378817
  85.8054829  67.4749660  78.1964684  86.8139648  68.5546017  78.5256147
  47.0180464  65.5137253  82.6270008  47.2720957  66.4358282  82.5894451
  46.2287569  65.4606104  82.0880795  93.5573196  81.6631317  59.0582943
  94.3859577  82.0864677  58.8338184  93.2719707  82.1043873  59.8583603
  21.0865760  25.3962612   6.7046535  20.2225733  25.5920315   7.0671523
  20.9084225  24.8316908   5.9524888  31.9402528  25.9120178  11.9301236
  31.5041614  25.1140213  12.2288823  32.8702211  25.7507515  12.0894539
  84.0570545 104.4641781  82.6155663  84.7934532 105.0622272  82.7431488
  84.0199089 104.3285656  81.6687489  94.8356724  92.2802258  14.2292845
  95.3578281  93.0773067  14.3200481  95.4530430  91.6252613  13.9035356
  84.0151787  85.4026031  75.5663729  83.5097408  86.0306168  75.0502682
  83.4100914  84.6770573  75.7202911  45.7333136  39.5035028  21.9594669
  45.0680256  40.1246405  22.2557998  46.0532236  39.8702788  21.1352324
  36.5619636   2.8141224  21.7881203  37.2768688   3.4014156  22.0335388
  36.8710756   2.3796672  20.9931803   5.6443936  44.1823864  86.7796993
   6.2463033  44.6664715  87.3450279   5.0217640  44.8414326  86.4727497
  39.0533400  17.1914148  37.9842377  38.8749051  17.2601533  37.0463324
  38.5603333  17.9126799  38.3753300  82.2101784  46.7160559  91.6089725
  82.9657078  46.1350250  91.6972828  81.7029667  46.3416147  90.8887196
  11.2433922  42.2715187   8.0178773  10.2910459  42.1965122   7.9575258
  11.3913894  42.8421736   8.7719911  62.5379753  24.7257900  11.8515801
  62.6875639  23.7828016  11.9195902  61.7161942  24.8723364  12.3200178
  27.8159237   6.8098611  25.2724910  26.9226933   7.0573592  25.5114889
  28.2352257   6.5927851  26.1051345  16.6794455 102.7999210  29.3373156
  16.7515051 103.4263706  28.6171746  15.8326662 102.9936028  29.7394180
 110.9552670  93.4891319  19.2799306 110.8778572  94.0796375  18.5305715
 111.4547443  92.7436256  18.9468062  59.8910522  91.9229794  82.5295448
  59.1526651  92.2992325  83.0085468  59.6749830  90.9941006  82.4474716
  28.5970306  11.9762552  15.8740973  28.0207515  11.6124642  15.2019429
  28.6143374  11.3098633  16.5610147  39.0611100   4.7521788  33.8951540
  39.2856741   3.9729267  34.4036508  38.5260201   5.2793407  34.4884610
  71.2893867  38.8691711  11.4410198  71.9254875  38.2275748  11.7571855
  71.7243385  39.2931890  10.7012522   6.5847284  87.7202988  84.1119576
   7.5189728  87.8872108  83.9872265   6.4313096  87.8988266  85.0397682
  30.7882142  35.4086518  46.8785334  30.0593066  35.1202154  46.3292313
  30.3777051  35.6729388  47.7018595   9.1564673   9.3829632  21.2674785
   8.4148020   8.8433784  20.9935927   9.6886504   9.4773477  20.4774761
  76.4334631  80.0750446  80.3982067  77.3566294  79.8293781  80.3378582
  75.9863329  79.4745493  79.8017931 108.7286091  34.2325807  86.9608593
 109.5427704  34.4256353  87.4257374 109.0106392  33.8134050  86.1478519
 103.7098122  68.9034700  75.0891113 104.4240952  69.0186930  74.4624043
 103.9157581  68.0840635  75.5389977  28.3105135  27.2293806  26.7917681
  28.6359406  26.4490342  27.2405314  28.3396149  27.0010018  25.8626676
  64.3792534  98.0950928  88.5654259  63.7056541  97.5351524  88.1794834
  65.1959324  97.6139450  88.4321499  67.0888567  92.2522449  89.5080948
  66.5176821  92.8364849  89.0094471  67.4941254  91.6914845  88.8466263
  17.6050580  97.7190018  19.7267473  17.2419846  96.8584347  19.9360824
  18.0845833  97.9747677  20.5147004  20.1262617  52.2139215  37.4741817
  19.4503427  52.8599882  37.6790214  19.9710155  51.9873714  36.5572286
  50.6259012  28.2743430   3.1328827  51.1512423  27.5866866   3.5420039
  51.2197781  29.0221214   3.0668050  63.6767101  56.5830040  86.7504120
  64.0849352  57.4482536  86.7808819  63.1798697  56.5237141  87.5664234
  31.7983770   1.9162598  87.1220398  31.5260148   2.4934480  87.8354168
  32.0557404   1.1032245  87.5567436  24.6008897  49.3081999   2.7191776
  24.5422244  48.3528852   2.7318704  25.1292610  49.5259380   3.4870607
  43.7189007  34.2985749  21.2239003  43.6102629  34.4549680  22.1619701
  43.6940765  35.1711392  20.8311582  35.5286026  38.0562401  18.8808048
  36.4547634  38.2045341  19.0717661  35.2886152  37.3069859  19.4260180
  33.0420089  47.6287842   6.0047472  33.9157152  48.0195141   5.9905255
  32.6148582  47.9685640   5.2184105  91.8771172   2.3439854  88.1546497
  91.3164043   2.5282961  87.4010849  91.4436531   1.6184083  88.6039543
  79.0910482  57.3056221  85.4479885  79.6844816  57.6913595  84.8035622
  78.9726257  57.9913998  86.1051846  92.9777336   9.7652876  12.3290682
  92.6939583   9.0046608  11.8219638  92.3390770   9.8316848  13.0389559
  42.2399712  43.4245014   6.6766286  43.0662680  42.9465914   6.6054314
  41.9031048  43.1928396   7.5421256  23.5799551  13.4026921  29.8924279
  23.1190515  12.7092278  30.3645587  24.2632794  12.9454398  29.4023061
  93.7157631  87.9424858  68.3857584  93.6203575  87.8586292  69.3344927
  93.9519501  88.8599491  68.2489586  63.3192873  70.6031370  27.1597171
  63.7062740  70.9651899  27.9568291  64.0018892  70.7016611  26.4959574
  90.5191803  81.1714077  82.2762585  90.0563908  80.7621956  83.0074310
  90.7679558  80.4401588  81.7109108  20.4056501  58.2565594   7.3724163
  19.4769216  58.3803701   7.5682908  20.4654479  58.3564997   6.4223278
  87.1875954 100.0373554  85.7149982  87.6824284 100.6720734  86.2331867
  86.9475555  99.3531418  86.3398743  92.8696905 105.2513528  66.9061661
  93.1581841 105.9409660  67.5040245  93.2417439 105.4974761  66.0592699
  92.3044491  10.6572104  90.3337288  91.8376350   9.9953210  90.8438492
  91.7968655  11.4588654  90.4599762  50.3833580   5.9244412   3.8361979
  49.8923302   5.2050430   4.2331773  50.3319454   6.6325110   4.4782463
  50.0275993   2.6054797  10.9176123  49.7737551   3.3408540  11.4753032
  50.8661509   2.8700373  10.5393577   7.5233173  78.8167810  16.2997580
   7.5972110  79.6001148  16.8448794   8.1960762  78.2255793  16.6375506
  77.4258280  32.6578665  86.2691498  76.9590378  33.2771349  86.8302631
  78.0985689  33.1851387  85.8382988  16.5368128  95.4562664  75.7410431
  16.2760818  94.8653316  75.0346088  16.2231350  96.3164234  75.4618263
  50.3620052  91.6035652  79.5626497  50.9694910  91.4023876  78.8508034
  50.1491070  90.7517052  79.9437666  86.4063358  42.0554399   3.9555416
  85.5802822  42.3390532   4.3472320  86.3179970  42.2717524   3.0272976
  66.0547876  72.9635239  90.1168633  65.2800560  73.3405399  89.6998596
  66.3743067  73.6542034  90.6974697  10.7886052   3.9144590   2.3127140
  11.0823846   4.5376557   1.6482207  10.7219028   3.0810603   1.8466353
   0.3560339  40.2135229   0.4466096   1.1854419  39.7639489   0.6084705
   0.5357344  41.1302042   0.6554897  65.1701307  65.1991415  75.2946520
  64.8345470  65.3721714  74.4150686  66.1064196  65.3891325  75.2354574
  79.3132877  67.2336292  54.1922903  78.7364006  67.7757311  53.6541843
  80.0552940  67.8028679  54.3963242 110.4067898  53.7277985  83.1600761
 110.3630161  54.6381187  82.8674507 110.2032566  53.7665606  84.0945816
  22.6642299  34.2494321  22.1328259  21.9484138  34.4718051  21.5375161
  23.3433175  33.8848925  21.5652132  43.3838415  49.8822737   7.7236283
  43.7428761  49.3121243   7.0437354  42.7947140  50.4729939   7.2543579
  86.4119244  77.6124477  77.7939987  87.2268963  78.1018257  77.9060841
  86.6772461  76.8014717  77.3602247  12.8791213  85.9168434  78.2884312
  12.4199009  85.1191616  78.5512018  12.4240291  86.6192532  78.7529087
 103.0176640  89.4988251  85.8010101 102.1256161  89.8344135  85.7123280
 102.9700184  88.8820267  86.5314388  21.8419027  35.9282017   6.1989653
  21.2146020  36.5358305   5.8071542  21.4903021  35.7504249   7.0713204
  84.8998833  89.0511799  73.7929583  84.1028595  88.5727310  73.5647726
  85.5115795  88.3737946  74.0814161  55.6026077  70.0124741  16.7762160
  55.3350592  70.8269310  17.2020257  54.8895025  69.8140335  16.1693108
  63.1998158  62.7190542  78.5970545  63.2783747  62.0995426  77.8716087
  63.9567566  63.2970905  78.5014248  63.5802650  17.0418882  31.6910100
  62.9477644  17.3473561  32.3412919  63.1177855  16.3545763  31.2114835
  47.2826672   1.4404708  17.0871854  47.1022940   2.3087221  16.7268538
  47.9185343   1.5981433  17.7850676  94.4581509  18.4096122  89.7871685
  94.6072388  19.1784191  89.2367744  94.4241905  18.7562811  90.6787395
  70.3268576  87.1944141  79.2784786  70.1022387  86.3364410  79.6385670
  70.8332253  86.9982338  78.4902334  55.5595446  61.9730759   9.0502834
  54.7974730  62.0600843   9.6229166  55.6408262  62.8283119   8.6281461
  93.6211967  98.6548424  89.8452377  93.1441879  97.9739094  89.3708611
  93.0706310  99.4336510  89.7642231  59.2198086  33.7327480   9.8720318
  59.3487835  32.7898932   9.7689492  59.8861456  33.9977336  10.5060732
  23.2345796  46.7216396  19.4897807  23.5521460  47.5327110  19.8866975
  24.0293193  46.2378168  19.2649770  37.9756999  31.0569620  29.0694523
  38.5942936  30.4731774  29.5085049  38.2514143  31.9363475  29.3280935
 104.6120930  20.2756572  65.6686497 104.3698311  20.2128983  64.7447443
 105.3913879  19.7258031  65.7498026  65.2622032  83.7080956  76.4298868
  65.5434608  84.6120739  76.5710783  65.2528906  83.3206749  77.3051262
  70.5036449  91.0545158  84.0263844  71.3662767  91.3431740  83.7284374
  69.8937130  91.4239216  83.3878326  67.9361343  48.3382607  89.0784359
  67.8684568  47.8218889  89.8815632  68.7848616  48.0954647  88.7083817
  53.3931971  38.3370376  14.4303644  54.0069437  38.0922604  15.1229191
  52.5684166  37.9226184  14.6837831  36.1463189  14.9946439  20.7975054
  36.3865018  14.9793458  21.7239547  36.1557341  14.0749311  20.5324149
  19.1800737  27.4988556  21.3294148  18.9249170  28.1861973  21.9447923
  20.1165533  27.3747373  21.4837909  88.5430050  97.0891571  88.7913799
  89.1422939  96.4737606  88.3690357  88.1540394  96.5900135  89.5095730
  77.4851751  25.1166773  24.1512203  76.6478348  25.0695300  23.6898398
  78.0574322  24.5184827  23.6706805  65.2574492  41.8180084  25.6427741
  65.3531408  41.5660524  24.7242999  65.8245754  41.2107849  26.1180401
  83.8627148 101.6052914  43.4173632  84.2555904 101.1364460  42.6811123
  83.8071442 102.5136471  43.1206560  43.0027533  37.4833488  29.9884558
  42.1407270  37.6307726  30.3775644  43.6202717  37.6790953  30.6931472
   4.7626010  11.7296731  89.1982365   4.2810562  11.8958986  88.3878517
   5.3942198  12.4468195  89.2529202  13.7643564  55.6451750  82.6616287
  12.9031599  56.0621452  82.6350307  14.0418196  55.6100225  81.7461967
   4.2489782  19.3572974  61.0887098   3.2920098  19.3568552  61.0676670
   4.4948155  18.4714091  60.8222532  24.2515254 104.9577904   7.9106778
  23.8408995 104.1495705   7.6034361  23.6937976 105.6555557   7.5667429
  69.6725082  59.3082762  15.5830920  69.4679451  58.5979462  16.1912155
  68.8963509  59.8682356  15.5990827  23.6695528  23.3621216  22.8054380
  23.3185506  22.7315211  23.4342241  24.6136999  23.2046533  22.8099513
  76.8455076  22.0934296  26.9460344  77.2012043  22.5004721  27.7359915
  76.2341690  22.7419710  26.5969086  15.1116693  14.3579268  80.6296730
  16.0182226  14.6610522  80.5795765  14.6030223  15.1508486  80.7993317
  75.1585960  92.5284386  66.7298317  75.3829861  91.6438389  66.4411116
  74.8411036  92.4146938  67.6256514  87.1376991   7.7744001  84.6248722
  86.2094307   8.0004835  84.5662308  87.2423935   7.4191725  85.5075264
  73.9016342  30.8953142   7.2680938  74.2667818  30.3036213   6.6102201
  73.9488554  31.7615914   6.8636632  36.5753365  34.2173076   7.6357359
  36.2224412  34.9154329   8.1873858  36.2416553  33.4103847   8.0278647
  72.8749228  86.3290405  62.3882914  72.6909161  86.6131306  61.4929342
  73.6093378  85.7214355  62.3006248  93.3327961  99.8802280  76.2343311
  92.8416538  99.4860935  75.5134487  94.2498779  99.7052002  76.0232401
  92.0145512  81.4369774  73.8111496  91.9870090  82.0488262  74.5467520
  92.6679611  81.8060589  73.2169580  32.2175074  26.8125629  23.9211154
  32.0147276  27.5288415  24.5228291  32.3258018  27.2377825  23.0704165
  55.6990957  42.4710512   0.5933958  56.4034319  43.0976248   0.4274136
  55.6635427  41.9352150  -0.1989733  21.1259437  43.8659906   6.0568690
  21.2339449  43.1505060   6.6834885  21.4234900  44.6441412   6.5282232
   7.6894987 105.1920891  74.2439079   7.1143973 105.8624077  74.6128988
   7.7960879 105.4461288  73.3272123  73.5000181  50.8735466  21.7125082
  73.7928724  50.2065945  21.0915065  73.9602566  50.6629229  22.5249410
 105.3851795  94.0432262  81.1462021 104.9006653  94.1920757  81.9581890
 104.7899628  93.5261154  80.6034851  66.9045162  74.9863291   2.5590035
  65.9546661  75.0991821   2.5232542  67.1089077  74.9713373   3.4940064
 105.0154305  55.8477163  14.2163169 105.4364204  55.7762051  15.0729871
 105.7305717  56.0541058  13.6144829  11.1959922  65.5061960  89.5731354
  11.7524886  66.2842274  89.5382500  10.3087044  65.8402681  89.4414234
   5.0444347  84.6551704  78.9327669   4.1879493  84.8497868  78.5522509
   4.9912536  83.7328625  79.1832685  42.2038078  37.7919936  23.6781192
  42.2349119  36.8389773  23.7619209  43.0615425  38.0874014  23.9835024
 101.6215515  25.4757333  84.7590733 101.2316799  25.5702186  83.8899899
 100.9194851  25.7155681  85.3638935  81.4507389  23.1279039  11.7120266
  81.0968876  22.5707698  12.4053013  81.2562752  22.6555753  10.9025073
  47.0838118   8.1838989  77.0414114  47.5537729   8.5750574  76.3049555
  47.6595736   8.3220464  77.7935028  44.0700878  75.4878781   0.3850731
  43.5481097  74.8728059  -0.1301494  44.7969933  75.7258223  -0.1904503
  79.7764778  57.3468781  12.3516178  79.0638399  56.7621803  12.0937192
  79.3435240  58.1747341  12.5600481   8.3847088  97.1575260  69.5668602
   9.2132747  97.6206970  69.6900988   8.3171338  96.5809250  70.3279114
  23.1020975  96.7244339  76.0099888  22.5216675  96.0644627  75.6308270
  23.6608362  96.9982910  75.2826309  39.9674344  12.0528591  80.1527882
  39.2048001  12.3679769  80.6378841  39.6112323  11.7478037  79.3183470
  56.0728359  32.5482702  74.2590714  55.8137894  31.9931602  73.5235596
  55.2460527  32.8119063  74.6629953 106.9061361 105.7506669  91.5807915
 107.3021160 106.1478620  92.3564720 107.0596514 104.8119100  91.6875648
   2.3729804 100.7037067  58.4564066   2.6864713 101.5919209  58.2860327
   2.4502045 100.2566624  57.6135445  95.0888062  50.8449316  11.7647362
  94.2018509  51.1561203  11.9455874  95.0600529  50.5564070  10.8525085
 106.7329788  46.7581224  79.1549492 106.0230923  46.4099073  78.6154604
 107.4293804  46.1051607  79.0850115  39.0447259  25.0317621  77.8436804
  38.2536507  25.2270555  78.3459663  38.9379263  24.1196632  77.5736761
  92.9898167  39.8825622   6.9938779  92.0404339  39.8180461   6.8902504
  93.2747269  40.4248667   6.2583745  25.7185555   0.7046205  79.1361761
  25.3957653  -0.1907334  79.0342951  26.5244341   0.6123161  79.6443796
  24.3522120  28.0623269  63.1754255  24.0631294  28.9440107  62.9402781
  23.8872910  27.4876690  62.5672770  87.3346138  92.6587105  52.7920723
  87.4752331  91.7121124  52.7718544  88.2013988  93.0330372  52.6346111
  66.7165327 102.6959991  74.8109865  67.2521067 101.9059944  74.7383118
  67.1681833 103.2324505  75.4624939 107.7004051   0.3205593  68.7321615
 108.1927872  -0.4976892  68.7974691 107.5362968   0.5744769  69.6403599
  78.7265921  71.3909531  13.4259152  78.7463903  72.3355007  13.5797477
  78.3883047  71.0224152  14.2419899  27.1409488   2.5730357  65.2076769
  26.4105368   2.3907425  65.7988644  26.7303324   2.9458076  64.4275045
 101.7101192  93.7720490  86.1849689 101.0580349  93.6975670  85.4882145
 101.3084793  94.3570614  86.8273640  35.7616138  35.4006290  75.2279568
  36.4354038  35.6492567  75.8607483  35.5412650  34.4972825  75.4552126
  53.8324833   2.5304902  68.1111574  53.3992195   2.3012552  67.2889853
  53.3557272   3.2979602  68.4272623  20.7440710  18.7524247  77.3377419
  21.6746831  18.6448944  77.1412039  20.5611920  18.0878401  78.0019093
  92.2778511  22.4815965  70.0483751  92.0285320  21.8654466  70.7371712
  93.0087185  22.9746604  70.4211330  24.8941350   3.2736322  70.5185699
  24.3316317   3.0203682  69.7866678  25.7476354   2.8956720  70.3066397
  37.8912234  49.1896582  63.8040257  37.9480410  49.9783850  63.2646608
  38.0185699  48.4683847  63.1877613   2.7483687  38.6323237  73.7738085
   3.5038131  38.9921284  74.2386484   2.6242211  37.7631760  74.1551208
  15.2238715 104.3340492  64.2005348  15.2044117 103.4846687  63.7596178
  15.8269513 104.2097187  64.9333858  67.5784826  57.8357029   8.4609193
  68.4768295  58.0445099   8.2047880  67.0668602  57.9579115   7.6612049
  54.4621944  11.6262090  59.3970919  54.4775534  10.8900273  58.7855101
  53.6474037  12.0869410  59.1968918 105.8373070 105.4798985  75.6706524
 106.4633465 105.6646156  74.9705219 106.1191750 106.0360813  76.3968945
  14.5299852  24.6853995  69.2937040  14.3478131  25.4769564  68.7872648
  13.9691579  24.0159702  68.9018250  89.0875912  90.4462910  55.8250284
  89.1211128  91.2765121  55.3498125  89.9997044  90.2614975  56.0489607
 103.7004948  46.9784546   0.9531252 103.6550617  46.2660694   1.5908381
 104.1753674  47.6753616   1.4059582   4.2807952  92.1141911  80.9521866
   3.3755636  92.1299076  81.2628937   4.5546326  91.2031460  81.0582066
  31.7299342  37.6341009   9.9967694  32.4509025  38.1794667  10.3114271
  31.8617392  37.5857735   9.0499198  86.6676426  89.3465328  69.7849941
  87.2437382  89.1421604  69.0483999  87.2185326  89.8445988  70.3888941
  99.6128178  51.8886328  16.4944673  99.1459179  51.0985756  16.7665887
 100.5383587  51.6507578  16.5493500  17.0883167   8.6943972  30.5243969
  16.9142210   7.8692740  30.9772706  16.6487134   8.6011344  29.6792436
   3.2899311  98.9873314  56.2953424   3.2936740  99.8964977  55.9959650
   2.7256176  98.5317802  55.6706381  35.7606769  67.8091526  83.0427074
  35.5421638  68.7325859  83.1682205  35.9482408  67.4855137  83.9237976
  42.5148630  75.3562546  16.5672529  42.7844667  76.2209940  16.8767250
  43.0487347  74.7436428  17.0731294  42.8010941   1.8239407  51.9586277
  43.5316944   2.4021322  52.1780491  43.2018948   0.9611736  51.8526936
  15.6309235  88.6414623  87.6236725  14.9356461  88.5833359  88.2789898
  15.5798709  89.5406246  87.2994232  71.7778111  85.5764294   9.2974639
  72.6098919  85.8590508   8.9179945  71.8861055  84.6358967   9.4385874
  68.8470840  43.2843304  83.3522606  68.1045437  43.5844374  82.8280449
  69.5730019  43.2306957  82.7306557  90.0634766  83.8977146  86.9803524
  90.5748367  83.4273148  87.6387310  90.7175064  84.2570591  86.3808918
  28.5310435  17.1179199  62.1703672  29.0293765  17.7428198  61.6436863
  28.5462499  17.4841702  63.0545950  21.0499883  41.3809443  76.6461563
  21.2873578  41.8305254  77.4571848  20.0936246  41.4146709  76.6246891
 106.1029243  24.5366883  75.7089758 106.1188221  25.0277328  76.5304661
 105.5434322  25.0552273  75.1307726  18.3758926  79.3435192  68.0125475
  19.2318177  79.5603180  67.6429224  18.5599589  78.6626720  68.6596918
  13.7798369  15.0255632  62.2785711  14.0710044  15.0983489  63.1875038
  14.1303754  14.1859353  61.9812822  72.1991301  62.0458841  26.7878580
  72.4511528  62.0702839  25.8647537  71.2492895  62.1641111  26.7800188
  69.3573618  85.5516529  24.7268057  69.1504860  84.6227455  24.8295999
  68.6272621  85.9047985  24.2184043  34.4601202  22.2946501  86.0040474
  34.9104238  21.7933321  86.6838551  33.6466479  22.5827932  86.4181328
  65.2468252  30.9511280  19.5546305  66.0723782  31.1229753  19.1016757
  64.6874428  30.5504346  18.8892257 105.3226376  21.0263467  57.2520065
 105.7887745  21.8597817  57.3178434 105.4138088  20.7728291  56.3335037
  48.5980511  29.0333986  73.1703043  48.2763386  29.5581937  73.9033270
  49.5472383  29.1559362  73.1864023   6.1126029  10.8809364  78.1388044
   6.0939950   9.9771792  78.4536171   5.4854786  10.8956742  77.4158049
   3.9637852  83.7159443  73.7351322   4.5432544  82.9824638  73.5290861
   3.0829674  83.3782387  73.5728216  74.4643402  65.7785368   4.2362317
  75.2929163  66.2576818   4.2469186  74.2122841  65.7565308   3.3130774
  49.0488815  12.1464765  74.6639633  48.2829475  12.0158076  74.1049433
  49.7818422  12.2196984  74.0527010  66.3625908  71.4709759   5.3173864
  66.9883585  71.0414696   4.7341418  65.5063486  71.1692953   5.0139600
  21.6202736  12.7053571  84.4810867  22.1637678  13.3816016  84.0766907
  21.7676115  12.8100348  85.4210758  40.9612036  99.0670300  80.5567455
  40.5987597  99.8701096  80.9308243  41.7955542  98.9468765  81.0102367
  10.5674434  93.2971287  45.4798555  10.3938198  93.2438850  46.4196730
   9.7218698  93.1160259  45.0694418  45.3679037  21.2124896  89.0799713
  45.5280066  21.9875598  89.6183681  45.0642586  20.5490422  89.6995449
  68.4619188  67.0960236   8.1156462  68.4958839  66.7310858   8.9998960
  69.2588139  67.6212358   8.0425239  97.3561668  53.3032942  28.7168741
  97.3717403  52.5956154  29.3612194  96.6785908  53.0438614  28.0925226
 101.7444515  80.2540398  46.0187531 102.1201324  80.9760952  46.5224600
 102.1557999  79.4695044  46.3814259  28.7635875 102.3625278  72.9934835
  28.5456920 103.2085228  72.6022625  28.7042165 101.7407990  72.2681141
  48.5323095  17.3536313  60.6641006  48.2409000  18.1100667  61.1731339
  49.1265106  17.7201366  60.0092459  75.2140999  89.6880054   0.4255219
  74.5901251  90.4001045   0.2847659  74.7723722  88.9111900   0.0825078
  84.2955399  64.6086311   6.5815330  85.0265312  64.4765091   7.1852154
  84.2864609  65.5519247   6.4192045  52.5353718  28.2985067  72.1100807
  53.4870434  28.3008814  72.2127676  52.2016096  28.5723710  72.9643869
  41.8008137  37.2717452  84.5057201  42.0891285  36.8436289  83.6996078
  42.5436449  37.8161001  84.7667122  99.3203831 100.5115414   5.2712065
  99.0935326  99.7438812   5.7960528  98.8957310 101.2425804   5.7200849
  48.0267286 103.8183784  78.6312723  47.0887184 103.6290455  78.6082506
  48.0972958 104.6158600  79.1559315  54.0625858  40.4104805  86.9077110
  53.2972479  40.7627964  86.4534473  53.7259531  39.6602750  87.3977184
  66.0442877  21.5357137  87.8164864  66.4499712  21.8562269  88.6220455
  65.2944088  21.0207820  88.1144047  26.0616899  54.5846319  50.6784391
  26.7434287  54.4377995  51.3341093  25.9094167  55.5294228  50.6986904
  21.2621212   2.5346795  83.4791756  20.3966761   2.9260254  83.3605194
  21.0894108   1.5992507  83.5858345  88.2825279  96.1240864  66.4237022
  88.9734173  96.4734840  65.8608294  87.8814316  96.8980312  66.8191195
  83.6979008  77.6553297   6.6792607  82.9860687  78.1536388   7.0807832
  84.4927502  78.0091286   7.0783365  56.7305994  11.5378439  70.5903435
  55.8901358  11.1415589  70.3605413  57.3381186  11.2133968  69.9255991
  88.1015205  90.8795643  71.7185688  88.7965202  90.5855656  71.1296844
  88.5381031  91.4788723  72.3239326  52.3221874  14.3411350  80.6620026
  51.9095039  15.0772905  80.2103424  52.5486994  14.6864891  81.5255165
 100.1479721  62.2979927   7.8004950 100.1160431  61.4431906   8.2300597
  99.3790817  62.3084688   7.2304797   8.2251459   2.4784485  13.5121536
   9.1708529   2.4208322  13.6483502   8.0742508   3.3900478  13.2622552
  82.0584106  80.1619911  76.0150909  82.6676273  79.6021128  76.4963770
  81.3068581  79.5976639  75.8335829  27.0632577  43.1391811  71.8608904
  27.2432256  44.0449429  71.6090250  27.9016733  42.6898241  71.7542505
  84.3543339  94.4131756   7.9430246  84.9215412  93.6473846   8.0328715
  84.3342495  94.5872688   7.0020044  29.1528702  14.4813693  73.6253929
  29.1024017  15.2351189  73.0375624  29.5702076  13.7970734  73.1021357
   1.5326203  33.7422061  77.0868683   1.7384186  32.9500771  77.5832653
   2.0681854  33.6753774  76.2963390  85.7814217  34.7618461  18.8503325
  86.6272640  35.0457382  19.1970146  85.9586239  34.5436811  17.9353285
  21.5168595  83.2408619  83.2353687  20.7701588  82.6700687  83.4166622
  21.2464833  84.0995312  83.5606384  14.1262746  69.0313768  76.2796164
  14.8395097  68.4521770  76.5480518  13.4115744  68.8265181  76.8825006
  24.0298533 102.7354527  34.6309257  24.0810633 103.3153057  35.3907847
  23.0953455 102.5542545  34.5304704  84.9015903  91.9853115  15.5977297
  84.9840927  92.9189014  15.4032075  84.8645401  91.5640926  14.7389913
 109.8668671  41.7533636   0.5342625 109.9468613  40.9771013   1.0885620
 109.1163540  42.2272348   0.8925946  87.9813290  63.0133438  12.9472899
  88.0655766  62.3325872  12.2796798  88.7174797  62.8602934  13.5396516
  22.9998755  76.6513157  47.1947002  22.9963493  75.7319164  46.9283819
  22.1800232  77.0040226  46.8487692  92.9801369 105.8065319   2.4367526
  93.1869984 106.2647057   3.2513189  93.7030792 105.1904678   2.3182262
  32.9236078  28.1185317  83.6532497  32.2843289  28.4259009  83.0105305
  32.4111676  27.5948930  84.2692280  77.2374582  72.2648668  43.6768055
  77.2483635  71.4197302  43.2275295  76.3996363  72.6565170  43.4300232
 105.4139233  80.7716370  81.7573833 104.7964859  81.1779594  82.3655796
 104.8603821  80.3229141  81.1182690 112.1171951  34.0232682   1.3254392
 112.9109669  34.4501829   1.6477795 111.4064407  34.6061778   1.5924259
  11.9551110  15.1104474  71.9190693  12.7390039  14.5646393  71.9810200
  12.2889161  16.0072541  71.8957758  76.9855690  34.4021034  21.9557524
  77.8814936  34.6245861  22.2088528  76.4352512  34.8998857  22.5603938
  34.0422082 103.2144547  52.6141834  34.6485329 103.7648392  52.1185255
  33.3301306 103.0305958  52.0015049  73.1508398  70.7154655  24.3243599
  73.0632639  69.8118782  24.6278262  74.0955639  70.8581352  24.2663074
  89.4677925  77.8894758   7.3493916  89.8030376  77.0372677   7.0708513
  89.9314308  78.0738926   8.1662530  69.8828650   4.6426445  73.9450026
  70.2631569   4.9503106  73.1222343  69.8578072   3.6899385  73.8558149
 105.1191902  45.7568264  20.2587366 105.1988220  46.6514254  20.5897641
 105.4958439  45.2114773  20.9493613  54.9831963  20.4846072  84.5897865
  54.6320248  19.8624063  83.9527893  55.9098721  20.2559757  84.6621513
 102.0364761  93.1699753  75.3491068 102.5476265  92.5527573  75.8725500
 101.9541645  92.7479744  74.4939041  51.4519501  29.6586394  74.2624187
  51.7279243  30.2965355  74.9205685  50.8450937  29.0823889  74.7270632
  90.3128242  37.2247243   4.9242169  90.7003689  36.3962603   5.2065003
  89.5846844  36.9680452   4.3583861  59.3676186   0.4967811  60.7224798
  59.5318985   0.8943257  59.8673773  59.6720457   1.1497933  61.3526630
  20.1772952  19.8758399  25.9022260  20.7087469  19.2994952  25.3530288
  20.8130026  20.3444266  26.4430904  18.7914205   3.8479802  87.5165558
  19.2439365   4.5248237  87.0132256  19.3524671   3.0763492  87.4388218
  53.8090229  29.4369841  77.2024822  53.5653162  30.1450086  76.6062069
  54.7535276  29.3376660  77.0830059  33.7610078  38.5931849  81.6825104
  33.9162779  37.9107714  81.0294914  33.0291677  38.2635617  82.2040367
  50.5405188  21.3839698  45.1946592  50.1112986  21.9643378  45.8232880
  50.5046082  20.5193186  45.6037140  34.1215372  51.0137415  69.4649506
  34.8389339  51.0539103  68.8325262  34.5333552  50.7146406  70.2756166
 104.8343563 105.5305767  88.5902596 104.6992970 104.5936489  88.7322235
 104.4472980 105.9476948  89.3599510  99.1156387  76.0059214  29.6038365
  98.8186169  75.1441669  29.8960447  99.8209190  76.2342072  30.2093959
  29.5866609  29.2094111  40.4492569  29.4593859  29.6336937  39.6007180
  30.2210474  29.7650313  40.9021044  18.5824955   9.5985705  72.2471952
  18.4566355   8.7056732  72.5683260  18.0023074   9.6643257  71.4887190
  12.0039654   1.0852525  80.2992153  12.8935969   1.0138248  79.9532557
  12.0864534   1.6686738  81.0535622  88.2245159  59.0362215   3.8217637
  87.8986359  58.7431717   4.6727371  88.2623482  58.2395601   3.2924914
  84.6260357  60.3980112   5.2473885  84.0820408  60.9803915   5.7776177
  84.0581226  60.1324034   4.5240903  67.7691936  30.5457592  64.1355419
  68.4310055  30.5586076  64.8269701  66.9365788  30.6348920  64.5992661
  61.6558297   0.1882619  89.3789005  61.5730293  -0.6882506  89.0032482
  61.8137772   0.7576341  88.6258507  34.6241713  42.1578074  72.5092411
  33.6940742  42.0131254  72.6830721  34.7939253  43.0419064  72.8344774
  98.0255222   6.3423455  62.1319771  98.0229950   6.2178040  61.1829185
  97.9266262   5.4599845  62.4895954 105.8297539  71.5628290   3.6454001
 105.0921822  72.0902777   3.3387813 106.1478806  71.1167622   2.8605121
  28.1509233  12.3097157  28.0573392  28.3908272  13.0941558  28.5506272
  28.9831305  11.9695604  27.7287698  92.6020622  72.9786444  12.8102672
  92.4486351  72.5772429  13.6655831  91.8948364  72.6445007  12.2585428
  31.6923594  59.6251965  89.7464657  31.2862706  59.1354847  90.4616642
  32.5658751  59.8434830  90.0713539  42.8442383  45.6239414  46.7546511
  43.7072134  45.3883505  47.0952415  42.3722506  44.7928333  46.7025375
   4.5592958  40.4609251  77.4885941   4.0695891  41.2729073  77.3577976
   5.3968441  40.7429361  77.8563070  51.0759361   0.7092923  89.3591404
  51.8565614   0.4474611  89.8472977  51.3671668   1.4424485  88.8170242
  40.6803417   4.7836643  83.6131477  40.9782457   5.1816535  82.7951622
  41.4858818   4.5898843  84.0925121  37.2548389   9.4179356  79.1176891
  36.4271832   8.9416671  79.0514708  37.8769064   8.7717968  79.4520092
  23.6005211  27.1048880  73.2819986  23.8356066  26.4695144  73.9582157
  24.3077135  27.7496171  73.3028984   7.2538316  95.7186222  33.8200903
   6.8209755  96.4888573  33.4518409   7.9214698  95.4874229  33.1743073
  27.2217917  31.3404393  76.7895746  26.8727446  31.1181617  77.6527023
  28.0590820  30.8788419  76.7436838   8.4859473  89.2301941  11.8945909
   8.8519591  88.5136986  11.3760293   9.2479211  89.7392464  12.1711564
  70.9494257  19.6650445  79.6444082  70.1091814  20.0917602  79.8121357
  71.2594080  19.3980289  80.5097675   6.5479457 104.0298271  84.9781799
   7.0441985 103.3880138  85.4861546   7.1892190 104.7032452  84.7512341
  72.6420212 100.2131176   0.9250969  72.9705143 101.0749912   1.1810310
  71.8877840 100.0651741   1.4955965  62.3047113  20.0326943  56.5131807
  62.3501682  20.8090949  57.0711803  62.8541183  20.2470970  55.7592487
  79.7549391  50.0919151   9.3303978  79.6132517  49.2111588   8.9833724
  80.7061195  50.1704550   9.4033480  15.6211507  18.1931210  80.4308033
  15.8213091  19.1227317  80.3212929  16.2482822  17.8887391  81.0867596
  37.0694637   4.9301127  75.0758314  37.9196000   4.4911891  75.1049089
  37.1557784   5.6602240  75.6887913  58.8390970  25.1592565  66.5562439
  58.9158773  24.7828221  67.4329615  59.7276974  25.4398465  66.3373995
 105.8298206 103.7998867  18.5729265 104.9932671 103.5441780  18.9615357
 105.8248329 103.3948040  17.7056825  69.1277313  13.1743491  66.3714695
  69.2631865  14.0786159  66.0882998  69.6289396  12.6501250  65.7467985
   8.3161509  76.4767408  85.1837540   8.4351653  75.6894636  84.6524715
   9.1917187  76.8585587  85.2456188  46.4515400  23.2317805  59.9009514
  46.7047167  24.1171479  60.1622105  45.7613802  22.9881549  60.5178452
  45.7353163  10.5183864  67.3107958  44.9989700   9.9180025  67.1943378
  45.3481007  11.3902855  67.2327805  68.2456446 101.1490345   7.7915090
  67.7801991 100.3126621   7.7824724  68.7213039 101.1494637   8.6221576
 107.3581600  27.3651743  50.2691317 106.8868446  26.8159866  50.8956194
 108.2320976  26.9777060  50.2210045  54.7409296  62.6074076  18.3546460
  53.7911797  62.5010824  18.3007705  55.0923872  61.7557430  18.0950749
  16.5951228  62.4489641  82.3086166  16.3486755  61.5241385  82.2945309
  15.8467543  62.8901625  82.7105141  81.8574960  95.4799316   0.0329003
  82.3514803  95.5772255   0.8469853  81.7924554  96.3690947  -0.3155151
  11.4262879  18.6401033  74.2115116  11.2046695  19.4595397  73.7691975
  10.9427059  18.6750317  75.0368357  59.6994257  25.7140255  75.9006214
  60.5582237  26.0443473  75.6368303  59.0864134  26.1292696  75.2939796
  75.7688427  73.4398746  31.8810129  74.9440670  73.2769203  32.3386407
  75.9785986  74.3517542  32.0827913  94.2159462  91.3717651  11.3778698
  94.6629620  92.1876717  11.6030288  93.7613964  91.5660191  10.5581808
  39.7032499   0.1843086  60.6817961  40.1136637   0.0802206  59.8233366
  39.3490148   1.0734921  60.6716919   2.4973539 104.8592663  56.0654736
   2.8414664 105.6016159  55.5687428   1.6754109 104.6383667  55.6274796
  62.3802042  23.7849140  62.2060728  61.8769550  23.7782431  61.3918686
  62.0335007  23.0472732  62.7079821  40.8461189  95.9728146  84.3049812
  41.0325336  96.8432903  84.6567822  41.2728357  95.3714085  84.9152756
 100.7988548  84.5624065   4.2753994 100.8847046  85.4674244   4.5750889
 101.6523647  84.1684055   4.4556987  85.6267071  71.3672256   5.9197575
  85.5801868  70.4445505   5.6692708  84.9295616  71.7875481   5.4162294
  88.2094955  42.9106760   0.9168289  88.3388138  43.6212730   1.5449700
  88.1285000  43.3507633   0.0706637  66.3967705  82.6485157  23.8648152
  65.7562542  82.4745083  23.1751132  65.8718300  82.9331207  24.6129251
  63.6190701  72.5764561  33.1863594  63.9138222  73.1740332  32.4991488
  62.6685572  72.5390720  33.0797839  86.3994694  49.4781637  21.8389106
  85.4673386  49.6286201  21.6816401  86.4441299  49.1810274  22.7477264
  88.0938339  54.5861626  12.4264657  87.4018478  53.9363194  12.3036158
  87.8179455  55.3331470  11.8953085  33.7642932  17.7977848  51.3035393
  33.0720711  17.4396610  51.8592405  34.0595961  17.0534492  50.7791424
  17.8547740  43.2072353  66.1880350  18.1499779  42.3172760  66.3805389
  16.9533134  43.2351828  66.5086889  21.3210607  31.4558744  89.6079636
  21.5064907  30.8955598  90.3615570  21.1296725  32.3131800  89.9882698
  48.6543512  36.4449620  69.6242809  48.2063866  37.0307851  69.0140581
  47.9606581  36.1224556  70.1996136  36.9361687   9.5700312  50.6574631
  36.8096542   8.6878055  50.3083181  36.7417455   9.4882709  51.5911388
  71.1414146  28.6588359  75.1981020  71.1962414  29.4593430  74.6761656
  71.6097736  28.8673949  76.0064220 101.0569382  36.7473030   4.5077914
 102.0087337  36.8486643   4.5138887 100.7230663  37.6301622   4.3486676
  68.5018015  90.8804035   3.0900288  69.0335131  91.3685894   2.4613819
  69.1324425  90.5433369   3.7263539  89.5484734  76.4095831   3.2281944
  88.9065170  76.3778353   2.5188839  89.0680695  76.1090708   3.9996457
  24.1177893  33.4007025  59.6337986  23.3960724  32.8443432  59.9267530
  24.8665953  32.8078628  59.5700741  53.2017994   3.0351681  77.4548340
  54.1353083   3.1326869  77.6426744  52.9967260   2.1383174  77.7191019
  58.1205606  21.4023089  72.0982647  57.5256777  21.5424204  71.3615751
  58.9124155  21.8853521  71.8619061  99.7704601  47.2292137  20.4369760
 100.6990623  47.2905111  20.2129769  99.7598648  47.1276331  21.3887119
  39.7371769  72.4314308   5.6129158  39.5289278  72.2472858   6.5288603
  39.9658227  73.3608484   5.6014550  23.8750339  22.2078538  46.8991613
  24.0186238  23.1540394  46.9178152  24.2361593  21.8944025  47.7283573
  20.4862165   2.7562422  66.9259644  20.2013755   2.4829811  67.7979898
  19.8211157   2.4030107  66.3351202  87.6009464  78.1363916  11.5701866
  88.5086536  77.9663277  11.8219519  87.5790310  79.0723419  11.3708079
  96.5275764  57.6088476  16.7446780  96.9532108  56.9490719  17.2921777
  95.7578278  57.8764248  17.2468019  93.6734009  47.7100611  21.5825582
  93.7748718  47.3930883  20.6850815  94.1442394  47.0706558  22.1170712
 111.1508846  98.6643696  88.9133739 112.0824432  98.4875965  88.7822533
 110.8962154  99.1845036  88.1512547  12.2560990   6.3999295  70.2023649
  11.9934475   6.6589034  69.3190861  13.1910932   6.6008866  70.2428102
  73.8090420  15.8937025  57.5632191  74.3603134  16.3595629  58.1919527
  74.3932390  15.6995058  56.8302536  36.2617636  20.2481055  68.7677956
  36.1021090  19.8296082  69.6137285  36.1213040  19.5520461  68.1259203
 107.3914814  25.2446938   8.4268224 108.2951164  25.4583144   8.6592591
 107.1155071  24.6145964   9.0924442  41.6745901  53.6417007  71.5161467
  42.4490166  54.2037821  71.4924526  41.1812067  53.8805151  70.7314396
  87.7979755  48.3808851  36.2768054  88.5579491  48.4143734  36.8577909
  87.3456383  47.5732517  36.5204406  38.1941438   1.4246127  11.0815597
  38.0584288   0.7063792  11.6995835  38.7405324   1.0473159  10.3921127
  34.3772602  35.0338411  89.7815609  34.9957132  34.9066138  89.0621376
  33.5935998  35.3906298  89.3634510  16.3620555   9.3115407  22.3524904
  16.9773555   9.1381323  21.6400528  15.5069411   9.0747684  21.9933963
  82.1784973  15.0386870  76.1769581  82.6963043  15.7979465  76.4445925
  82.5552273  14.3073261  76.6662550  26.2780046  11.4173496  71.1896086
  26.1600113  11.5985155  72.1220732  26.0021305  10.5066657  71.0857725
  85.8001709  66.5363312  15.0266778  86.5084934  66.7571354  14.4219005
  86.0449791  65.6811810  15.3802657  34.3619084  10.0682068  75.8190680
  33.4828568   9.7116458  75.9469843  34.3753815  10.8670759  76.3461924
  84.6300220   2.4745625  50.4489136  84.0357685   1.8195778  50.0827408
  84.4886684   2.4243206  51.3942862 107.7724075  49.4159555  15.2870536
 107.0365906  49.7962761  14.8073006 107.7917004  48.5001326  15.0093246
  41.1935043  26.3797045  64.2237520  40.6299973  26.3209152  63.4522343
  41.1925840  25.4949284  64.5889950  20.6302333 104.5676804  53.3463717
  20.8842468 105.3327274  53.8625240  21.3473010 103.9459515  53.4708452
  60.4682016  71.5085316  16.7487049  60.5151272  72.2468281  16.1412954
  60.9324265  70.8007622  16.3017261  29.3044329  25.1972747  50.0579262
  29.9255371  25.9111333  49.9134684  28.4456301  25.6195855  50.0394011
  66.7040014  46.6214943  86.0600185  67.4201012  46.0459661  86.3287163
  66.2335491  46.8132401  86.8712807  50.0461483  22.0829725  82.3715782
  49.9052477  22.9941869  82.1145439  50.8122492  22.1115088  82.9447365
 105.2470779  94.9577522  38.2384562 104.7877216  95.2457714  39.0272975
 105.0551891  95.6342888  37.5890684 112.0233822  99.1766739  61.7133522
 112.5913429  99.9337387  61.5701866 112.6161098  98.4253407  61.6930866
  83.3267593  59.6525049   2.9545096  82.8910923  60.2813292   2.3791756
  84.2391586  59.6552563   2.6650959  34.3613386   7.2801399  73.1181717
  34.7601128   7.1217424  72.2625303  33.4750056   7.5806957  72.9173946
 100.1301956  16.8981993  73.3393526 100.9298325  16.4438581  73.0740547
  99.6493721  16.2534869  73.8583803  74.0968418  83.2347775  18.5566449
  73.9241123  82.3696709  18.9281058  74.9999905  83.1849861  18.2434714
 104.2086697  96.9470692  85.2247715 103.5759163  97.0355225  85.9375286
 104.2468739  96.0060406  85.0538063  27.8921461  19.2698073  88.9775085
  26.9996953  19.6011913  88.8777733  27.8087831  18.5371876  89.5878792
  90.9146881  86.8931770  25.8733177  91.1474514  86.2860680  25.1708460
  91.1050320  86.4120102  26.6786003  61.8176699   1.3009863  83.2411861
  61.7707443   1.5179923  82.3100853  60.9037828   1.2409254  83.5194683
  11.7791700   4.0316010  64.3427515  10.9098411   4.4301423  64.3019629
  12.2416675   4.3875375  63.5840416 100.6662369  90.4276752  85.2956200
 100.1409721  90.7196236  86.0406685 100.0285625  90.2743816  84.5984077
  88.3705139  35.8603835   3.6045846  87.4885368  36.1766958   3.8002959
  88.2891655  34.9066520   3.6079851 110.1136017  93.8475704  86.5704250
 110.4232597  94.6318913  87.0234013 109.4334888  93.4930229  87.1431065
 108.2729912  61.2969732   8.1344044 109.0795708  60.8421278   8.3768636
 107.9779625  61.7103481   8.9457685  67.1766043  12.0147991  63.1712294
  67.7884674  12.1945536  62.4574041  66.4738989  12.6535177  63.0509090
  62.3544312  18.6560500  70.4577637  61.4576483  18.3274269  70.3943396
  62.2553873  19.5785022  70.6933546  66.3188982   4.2496231  78.1470728
  65.9081602   4.8791459  77.5544310  66.6434240   3.5562533  77.5724840
  75.6338024  15.5250573  80.7406521  75.9373999  15.4677987  81.6466141
  74.9015045  16.1406839  80.7718945  39.1982555  22.1406555  50.0955582
  38.5808253  21.9492173  49.3896103  39.6717668  21.3195252  50.2288485
  38.9697671 101.0096931  88.4789371  38.6176562 100.7366467  87.6317692
  38.2060337 101.3149166  88.9686108  80.2045631  58.5819912   0.5239761
  79.7168684  58.8980436  -0.2366165  80.4912281  59.3776798   0.9722269
  63.8358927  70.4669189   4.3894139  63.4367752  70.2540207   5.2329832
  63.4019518  71.2752199   4.1163248  42.0761585   6.8962461  43.9853287
  41.5144157   6.9567084  43.2126570  41.9532776   6.0011059  44.3013334
  45.8551836  11.9303024  85.6825638  46.8005514  11.8513787  85.8101845
  45.6431675  12.8082299  85.9996223  65.8303165  27.7725124  75.5471992
  66.5415049  27.1319175  75.5381918  66.2287188  28.5773659  75.2159595
  70.4610538  86.4186096  27.1795249  70.7693529  87.2103119  26.7386389
  69.9480915  85.9587193  26.5149927  10.0480807 104.0663052  75.1194334
   9.8351139 104.2239189  76.0392332   9.3854964 104.5565701  74.6327591
  63.2090521  19.2539454  48.4463072  62.4058485  18.9536536  48.8716602
  63.4495735  18.5391450  47.8568649  60.4520464  27.1695542  61.2965393
  61.0365152  27.4763727  60.6033659  60.9689999  27.2487855  62.0982313
  39.7684932  30.4468226  75.8021879  39.5636797  30.2372694  76.7134333
  39.4389153  31.3373256  75.6813049  48.8039875  11.4281249  86.0434055
  48.7798357  10.4758096  85.9498882  49.3787718  11.7236245  85.3373337
  31.8234634  42.5141716  86.4447784  31.4085746  43.0015612  85.7330513
  31.3607621  41.6764307  86.4629459  41.7101097  25.5496383  80.9155369
  41.0326529  25.7238913  81.5689278  42.4678278  25.2646375  81.4262867
  36.8786955  17.7720070  87.2679234  36.0522890  17.7609527  86.7850494
  37.1492171  16.8544161  87.3007298  59.2370129  25.8601499  43.7552357
  59.4714451  24.9344778  43.8216305  58.4768581  25.9564495  44.3289232
 108.1701469  82.9673481   9.2862755 108.2534790  83.7710381   8.7730730
 108.9219284  82.4363232   9.0234768  85.8488083  40.9537506  10.3161514
  85.9466743  41.6610813   9.6787071  86.7461109  40.7154036  10.5490899
  25.4459214   8.8648939  70.9780645  24.8869538   8.4352005  71.6254807
  25.1190948   8.5524315  70.1343918  22.3712039  92.0988274  46.5997410
  22.0749235  92.5205994  45.7931662  22.5809979  91.2022972  46.3381052
  45.8282185  44.0653467  73.7064266  46.2554455  44.5827913  73.0238152
  45.0792360  43.6618996  73.2676888  32.0359159  22.3785567  81.3715076
  32.4831295  23.0811596  81.8432903  32.6612949  21.6538954  81.3719463
  76.5000772  35.2354670  90.0913715  77.2690058  35.7162428  89.7850513
  75.8303213  35.9081674  90.2143955  67.0332861  13.2843125  68.1394958
  67.7814817  13.1088376  67.5688457  66.4520407  13.8311887  67.6109982
  94.7445297  81.1550331  16.8620300  94.0290070  81.7899323  16.8277729
  95.0429249  81.0813141  15.9555221   2.7516371  76.4253139   4.5489523
   2.0727952  77.0962191   4.4761816   3.5422802  76.9094324   4.7871646
  23.2374692  11.6654432  81.2765217  22.8252530  11.2176669  80.5377388
  22.8559041  11.2514734  82.0506477  54.9662352  17.9092348  57.2192192
  55.1711464  17.1360159  57.7449322  54.4908381  18.4861898  57.8170061
  43.0691004  24.7659445  66.7146397  42.6421213  25.4356170  67.2489214
  43.0091000  23.9672160  67.2387266  36.6431284  52.2744656  86.4471436
  36.4233756  51.5227318  86.9974518  35.7963753  52.6471949  86.2015629
  28.3153439  51.8589306  67.3298836  28.7139392  51.7924786  68.1976032
  27.3732114  51.8269777  67.4960041   9.8737633  89.1172791   5.5770773
   9.1001725  89.0549755   5.0168025  10.1519108  90.0299931   5.5007303
  75.9610319  25.8331132  47.3144865  75.8990669  26.1543322  48.2140493
  76.8882895  25.6265092  47.1972752  44.1634178  44.5894241  89.8513794
  44.4959211  45.2567482  89.2510891  43.3874035  44.2390871  89.4140053
  75.2039337  50.8529091  30.8323550  75.0220299  51.4408636  31.5654659
  76.1227942  50.6087875  30.9434104  80.9942150  79.5048475  14.6518159
  80.3399563  79.7151518  15.3181100  81.6108894  78.9235020  15.0967646
 106.0756111  52.9747677  13.2347584 106.4986801  53.3753252  13.9942312
 105.6578732  53.7060785  12.7798891  49.1043186  53.6241007  83.7608242
  48.5785341  54.1515112  83.1594753  49.8710346  53.3688068  83.2477951
  71.0633516  55.6134844  24.6453094  70.1470661  55.3413105  24.5945287
  71.1007690  56.4244652  24.1382146  52.5656223  31.5470243  62.0360136
  52.5901699  30.5952144  61.9375992  53.3978415  31.8471432  61.6705322
 107.7332115  47.5282431  70.8674288 107.0821762  47.7833939  71.5210962
 108.5601425  47.8709030  71.2065411 101.3834572  79.7482872   3.7467158
 101.4092922  80.5559349   3.2336232 101.0209656  80.0130939   4.5921189
  57.3697996  14.9689114  74.2327404  57.4237251  15.8857775  74.5023394
  56.4468908  14.8369193  74.0158415  34.0812063  22.8779387  91.6492653
  33.2180119  22.8457403  92.0616913  34.1044950  23.7272644  91.2084293
  18.1818509   5.5642259   8.0328608  17.4304318   5.8536297   7.5153232
  18.9209056   5.6056625   7.4259728  87.1076012  61.3942051   4.2687222
  87.4932766  60.5193996   4.2217427  86.1755180  61.2372351   4.4197878
  87.4217033   1.5881406  60.8818913  88.1074524   2.2320843  61.0588694
  87.4409580   1.4727014  59.9318743  48.5033751  46.8332148  89.2027378
  48.1943893  45.9441757  89.3770218  49.4574976  46.7671108  89.2416668
  63.4317064  34.1398382  78.4042501  62.6956940  33.5319018  78.4744453
  63.0959797  34.8621130  77.8733683  23.6797380  13.1623828  89.2777634
  23.4150529  13.4885967  90.1378536  23.7571263  12.2154450  89.3941784
  51.2648296  22.7046347  78.4027863  51.9712782  22.0815730  78.2326269
  50.7236576  22.6744580  77.6138258  52.1781731  30.7239246  70.4342461
  52.2068882  29.8289227  70.7724428  51.2849140  30.8274722  70.1062298
  86.0681152  73.3345127  19.3915343  86.8701839  72.8164673  19.3241072
  85.4408741  72.7504635  19.8177838  94.0080070  96.5396595  11.3036203
  94.7872925  96.7253113  10.7796991  94.3282509  96.5042019  12.2049642
  87.6395416  92.1886921   0.2503099  86.9358063  92.1767235  -0.3984166
  87.2034931  92.4121189   1.0726106   9.5170754  32.1915293  50.5626774
   9.5328563  33.1462622  50.4958391   8.7600476  31.9273114  50.0398684
  11.8948042   5.2431494  14.6363521  11.8274522   4.2921039  14.7212541
  10.9985137   5.5581278  14.7533226  72.5609112  74.5358229  20.8294582
  71.8524075  75.1681376  20.7093310  73.0333471  74.5444632  19.9970150
  42.5359821  45.5627203  72.0959044  42.8283501  46.4738655  72.1197319
  41.8029785  45.5624056  71.4803267  78.4517765  61.8946075   1.8767916
  78.8162374  61.6825104   2.7361026  77.5059938  61.9300032   2.0198672
  56.6369152  36.1949658  76.4044094  57.2085762  36.0653591  75.6476831
  55.8905649  36.6851592  76.0595942 106.4800358  66.8252754   6.2422562
 106.3720036  67.7610159   6.4124024 106.1468124  66.3982964   7.0314831
  53.4012413  34.9889207  53.8126373  52.5310230  34.7395420  54.1237068
  53.4402418  35.9362364  53.9441776  63.8206959  27.6301169  72.9156351
  64.5556688  27.7433062  73.5183191  64.1893530  27.1463442  72.1765184
  42.8045082  14.9967968  87.8751183  42.8513718  15.9343863  87.6881313
  43.6872196  14.6725345  87.6964855  32.9578781  36.8774056  48.1916571
  32.3980403  36.1708593  47.8697777  32.4213648  37.6655769  48.1069708
  33.7798166  40.2647543  60.8563042  33.1622863  40.2361107  60.1255035
  34.3333960  39.4937539  60.7324600 109.5810604  75.3984404  12.0761311
 109.4957161  74.5102549  11.7296195 108.6793804  75.7002020  12.1863520
  58.3242655   1.2406123  45.5150270  59.2133093   1.5586746  45.3579617
  57.8116083   1.5936966  44.7878790  59.6888781   1.8242782  89.2649651
  60.1066160   2.5430265  89.7394466  60.3076506   1.0976062  89.3377876
 112.0026016  64.3115759   4.5147437 112.2480392  63.4199333   4.7616488
 111.4805984  64.6290493   5.2515984  39.2509103  26.9646144  70.3096676
  39.6299052  26.2728834  69.7673559  40.0030756  27.3696446  70.7414389
  28.3363295  39.3393517  62.9916334  28.2706523  38.3914685  62.8757381
  28.5099816  39.4549632  63.9258242  77.1055222  80.2208519  34.7823668
  77.6247644  80.2518463  33.9788389  77.3616123  81.0077095  35.2635217
 111.9129467   2.6436475  11.4196801 112.2313499   3.4847724  11.0920274
 110.9736061   2.6551050  11.2359643  12.6104426  38.2045889  47.1155548
  13.0034614  38.7728143  46.4530659  12.1912456  38.8072348  47.7298212
  85.6800365   4.9189869  62.4171209  86.3457870   5.0678259  61.7456627
  85.2264595   5.7583034  62.4948835  81.7097569   8.1554562  74.3722963
  82.2967243   7.9002297  73.6605644  81.6933537   7.3951161  74.9535418
  19.5382631  31.7860270  83.7227821  20.1443958  32.4539924  83.4023857
  19.9809241  30.9560633  83.5454559  54.7644520  17.2023058  89.4022655
  55.2698135  16.5702248  88.8910770  54.2541361  17.6836741  88.7510395
  25.4969096  19.8332965  38.5142541  25.1733804  19.3033969  39.2427921
  25.6036353  20.7095885  38.8843298  67.1820402  23.9231753  79.2322588
  67.3854303  24.8024726  78.9133501  67.7022362  23.8316393  80.0305367
  56.1290407  31.0568309  81.7603970  56.3454533  30.9093237  80.8397293
  55.6762028  30.2580976  82.0309353  12.5365353 101.4810181  70.0936460
  12.2877431 101.3503742  69.1786194  11.8210125 101.0895348  70.5946398
  53.0170918  18.6409771  59.1827965  52.5277328  18.0839646  58.5774040
  53.4266615  18.0285704  59.7938967  90.4128647   6.7862093  52.1916437
  89.4786835   6.7854077  51.9829988  90.6345749   5.8615243  52.3013639
  89.4199848  97.3269272   5.3269410  90.2108479  96.9206810   5.6815016
  88.7118626  96.7357159   5.5824274  67.6416779  81.8550968  11.1041951
  68.5775757  81.8016148  11.2977600  67.3130369  82.5320148  11.6958094
  64.3404388  44.1300535  90.9228230  65.0352144  44.3090868  91.5564442
  64.7025251  43.4485769  90.3565121  38.0726266   1.1697774  20.2652335
  38.5529685   0.3705414  20.0490737  37.7283525   1.4765784  19.4264364
  49.0236092   6.4214182  88.1025887  49.1296816   5.4739928  88.1884098
  49.6326351   6.6685504  87.4067116  56.8742561  22.0467091  69.9029112
  57.0127010  22.9908800  69.9777937  57.1252918  21.8384528  69.0030003
  24.6854496  26.7202854  58.6439276  25.1066113  26.4709973  57.8213024
  25.2925634  27.3422170  59.0449810  77.9744959  94.8939610  11.1824739
  78.3727217  95.3039074  11.9503200  78.7164497  94.6526146  10.6279540
  86.5627954 105.7415330   6.0857892  85.7657443 106.2714034   6.0724097
  87.0990441 106.0976169   5.3773588  95.7738590 102.2775269  23.6791897
  95.1542854 102.3071861  22.9501700  95.5391026 101.4843845  24.1609097
  86.6704178  11.4419138  61.2831688  85.9833050  11.6744423  60.6586409
  87.0450592  12.2811854  61.5505600  29.2668295  15.5375838  34.3922901
  28.5268521  15.4836905  34.9970698  29.0312958  14.9518168  33.6728215
  43.4618282  47.5323582  77.6509380  43.4732437  47.1740341  76.7634106
  43.1064510  46.8256903  78.1899834  38.8081551  28.8960886  68.2353640
  39.3677878  28.5389757  67.5457907  39.2046428  28.5867357  69.0498161
 100.4152870  72.0464373   7.8954250 100.1825905  72.7274036   7.2642642
 100.2902603  71.2256050   7.4191546  12.5519216   3.6486125  11.9563365
  13.2599330   3.3145970  12.5071406  12.9971242   4.0354785  11.2024391
 103.5787678  74.8306322   6.8047643 103.6679077  73.8790512   6.8574065
 104.4785786  75.1567173   6.8202782  64.7482729  61.9635344  10.4791510
  64.1336679  61.2731743  10.2303648  65.3877115  61.9829416   9.7671306
  64.8160505  24.3212891  86.6943455  65.7156849  23.9946127  86.6813755
  64.9073219  25.2718186  86.7606258  70.3209496  82.5055599  31.1210942
  70.7288599  81.7145729  30.7686973  69.4976568  82.2008514  31.5026307
  56.9895554  20.7658577  75.9684324  57.9304123  20.5944705  76.0090303
  56.6161299  20.2168941  76.6579390  62.2519684  30.2399230  70.5599642
  61.3427114  30.4453754  70.7773876  62.2110558  29.8810339  69.6735334
 103.3722973  74.4658184  24.4778490 104.2886829  74.4170141  24.2056775
 102.9178905  73.8526106  23.9001632  36.2386847  49.8264599  61.1273813
  35.4196167  50.2739668  60.9150267  36.8635798  50.5337143  61.2871647
 101.7028618  75.6590080  31.3463378 101.9644737  76.5796661  31.3598299
 101.8033123  75.3681612  32.2527313   5.1890165  79.6825027  23.6435699
   4.8737442  80.0016212  22.7979946   4.7414705  80.2304077  24.2883444
  72.2440004   7.1417552  68.2602119  72.8614426   7.0997989  67.5299788
  71.8815660   8.0266255  68.2168722  80.4702091  82.5810432  21.3977194
  80.4373932  81.6412926  21.5766621  81.2986088  82.7080154  20.9352660
  36.2580538  12.1862984  80.2890491  35.4218221  12.1864498  80.7548332
  36.6265988  11.3193524  80.4587936  40.2391338  27.2980380  53.8031387
  39.4641161  27.6092649  53.3354664  39.9924183  26.4310932  54.1252756
  18.4539127   5.4543889  11.2573087  18.0528271   4.8206121  10.6625915
  17.7967083   6.1439568  11.3511753  70.8874941  31.8277907   4.9321616
  70.3174591  31.3038111   5.4949576  71.5463829  32.1868396   5.5264503
  84.6008682  98.5586834   4.1340038  83.8226414  98.5739326   3.5769001
  84.7264099  97.6334763   4.3448329  88.8850117  93.5509300  16.9603252
  89.3723488  93.9151192  17.6993155  87.9842377  93.8429451  17.1002066
  55.4583359  32.9751992  69.6468067  56.1335373  32.3230147  69.4597530
  54.6461582  32.5749183  69.3363714  51.1892700  97.4130535  40.7256937
  50.6383133  98.1915665  40.8068943  50.5692959  96.6873932  40.6529951
  47.4191713  11.4330506  60.7475901  47.9554892  11.1970818  61.5044975
  46.7865372  12.0646071  61.0898542  92.5217247  82.7198887  19.7439468
  92.4832726  81.7859268  19.5378625  92.2255039  82.7771091  20.6523561
   0.6020692   1.7032273   8.4853810  -0.1717754   1.9393000   7.9738474
   0.5361078   2.2348006   9.2786717  46.8969774  24.7883940  80.6930828
  47.7375460  24.3712640  80.5041885  47.1260643  25.5767918  81.1851978
  25.2560329  63.7786674  45.9293318  25.3278470  64.0227747  46.8520927
  24.4218874  64.1535234  45.6466341  97.4775314  59.5944595  11.1493766
  98.2014656  59.0506506  10.8388603  97.4988651  59.5006466  12.1017301
  21.4522505  17.9923522  83.4196472  22.2710633  18.4594250  83.5858440
  21.7257738  17.1058285  83.1840706   2.8697407  15.2427280  12.5901031
   3.6219865  15.8103609  12.4223185   2.5748444  15.4888046  13.4668660
  98.8145638  77.7212811   8.4006900  98.7921143  77.0941019   7.6779360
  98.3285141  77.2925091   9.1050661   4.4630098  24.5738053  89.7414207
   3.9034009  24.2266560  90.4360771   4.0282333  25.3802276  89.4641399
  52.8430796  22.1693540  83.4293175  53.0784750  22.7809978  82.7316666
  53.5782528  21.5577006  83.4697437  23.7816143  25.0137520  30.3425884
  22.9569459  24.6631122  30.0061274  23.5392642  25.4578590  31.1551571
  77.6321793  31.3650179  76.0729933  78.2854319  31.8460965  76.5809822
  77.3933744  30.6242990  76.6302538  43.4241962  31.6745639  38.9957237
  42.4691772  31.6149926  39.0206957  43.7154531  31.1730242  39.7572088
  92.0756149  96.3625240   5.9939015  92.6535606  96.8256760   5.3875166
  92.3977375  95.4611588   5.9905279  87.6834011  85.1067257   2.6513863
  87.7423096  85.4806900   1.7722329  87.0789051  84.3703938   2.5584427
 100.4119396  93.2953644   8.9237225 100.8979702  92.4715805   8.9609224
 100.3337288  93.4852982   7.9888225  36.2454844  50.3382015  47.0301008
  35.5344415  49.9576426  46.5145206  35.8294463  51.0403061  47.5302935
  59.9122334  43.4794950   0.7101819  59.0378618  43.8674688   0.7445913
  59.8876524  42.7756882   1.3584757 102.9159260 102.5893307   0.2774376
 102.1398640 102.5056076  -0.2765885 102.5698757 102.8055477   1.1433084
  85.1914787  10.2548110  77.6410484  85.8895683  10.7791555  77.2486591
  85.2297878   9.4188422  77.1763754  44.3816090  29.2234612  80.2197075
  44.6962833  28.7425089  80.9851456  43.4793425  28.9255643  80.1039314
  98.9472866 103.9762306  74.4335938  99.7414780 103.7285137  73.9601660
  98.8818932 104.9234867  74.3125010   8.1814855  26.7078853  56.3803101
   8.5880518  25.9142017  56.0324574   8.7476873  27.4186254  56.0794830
  63.3264112  17.0304143  57.9092598  63.3282232  17.9860330  57.9642296
  62.9837942  16.7424810  58.7553883  19.7073984  46.5334797  81.8794537
  19.1016459  46.4370346  82.6142979  20.2725625  47.2645092  82.1292973
  73.7593222  66.3290739   6.7445022  74.0886593  66.0238314   5.8991635
  72.9188728  66.7391300   6.5402102  72.5668907 100.0404167  13.9007223
  72.7340508  99.4799423  13.1429911  72.3358631  99.4318199  14.6024835
   5.8592308  81.3953018  88.5859680   5.3379250  81.0435200  87.8643608
   6.5809005  81.8558502  88.1578159  88.9121151  45.1135445  77.6377153
  89.4371891  44.6049404  78.2556581  89.3315887  45.9737158  77.6182461
  78.4783840   3.5686833  68.3693218  78.3132792   4.4675511  68.6539412
  77.9018068   3.0346850  68.9158010  88.2161140  34.7405505  56.3308811
  87.3277664  35.0258756  56.1171913  88.7048054  35.5537319  56.4579582
  39.8094535  33.3480978  78.3266687  40.6541395  32.8984880  78.3508539
  39.9319696  34.1180563  78.8819885  24.7108746  47.8055429  90.8702755
  25.4907632  48.2619619  90.5545425  24.0580010  47.9441786  90.1841545
  11.1246693  82.1753597  15.8070529  11.3914144  81.3152885  15.4824722
  11.9273174  82.5565243  16.1630070  76.6797018  68.2051134   6.4814711
  77.1800613  68.7852097   7.0553714  75.7691860  68.3310413   6.7485505
  53.9837408  47.3321247  66.6048527  53.3791494  47.6947832  65.9574175
  54.8389149  47.6837683  66.3573503  31.5132260  50.6047297  68.1543350
  30.9077311  50.2476072  67.5046682  31.9567800  49.8373175  68.5156775
  54.7345352  24.7345901  68.2998991  55.3488588  25.2282500  67.7566290
  54.4765377  23.9913011  67.7547503  66.9423246  64.6704721  19.6649683
  66.1623907  64.3130016  19.2405200  66.7303371  65.5910540  19.8193169
  33.5186434 105.9206581  59.9086142  33.2622385 105.4978848  60.7282162
  33.2391310 106.8304253  60.0107336 111.2640762  86.2771606  11.3652587
 110.4436016  86.4152145  10.8919799 111.0327816  86.3987255  12.2861040
  77.9910278  59.6107578   9.2934483  77.5294590  58.7747526   9.2279792
  77.5891066  60.0481129  10.0440550  51.5841818  29.7819757  54.1327572
  51.3050318  28.8679695  54.0789032  51.4548111  30.0181985  55.0512838
 105.3591251  92.9117107   4.7861016 104.5341778  92.6315308   4.3896213
 105.9864140  92.9060841   4.0631211  75.6451654  59.2630768   4.3029532
  75.0164557  59.2433023   3.5814506  76.2127304  58.5082722   4.1468281
  69.5471716  63.2263994  91.4181328  68.9882088  62.7555656  92.0362759
  69.3219519  62.8587246  90.5635357  20.8586740  20.0104451  72.1200800
  20.4870892  19.9082136  71.2438917  21.6662455  20.5052781  71.9815159
  75.7481813  87.9882240   2.9671636  75.3493118  88.8236141   2.7237234
  75.6731224  87.4486065   2.1801390  58.3064413   4.7392252  75.4007006
  57.6949739   4.0181541  75.2510548  57.7723360   5.4279685  75.7964230
  55.4327154  71.0005760   6.0277480  55.2292728  70.1559258   6.4295036
  54.6609783  71.2070990   5.5004919  52.1369219  82.6137638   4.2720440
  52.4999809  82.1247005   5.0104415  51.5544939  83.2579422   4.6745950
 103.8669205  74.5525408  66.0941792 104.6658325  74.4669724  66.6144133
 103.7329292  75.4969692  66.0145855  55.3237343  23.2151866  85.8743000
  55.1575089  22.5353765  85.2212620  55.4969931  22.7332425  86.6829681
  68.8295698  82.4304485   1.1294824  69.7712898  82.2590542   1.1346318
  68.4731531  81.7912197   0.5125597   2.4131861  80.5618572  13.9436507
   3.3488244  80.6209660  13.7504685   2.1931222  79.6441174  13.7837660
  49.4580650  13.6679590  70.3310490  50.0980616  13.6689413  71.0428286
  48.8167048  13.0049264  70.5865431  76.4661646  11.8511987  83.0037785
  76.8822575  11.0066652  82.8309822  75.6034756  11.7812693  82.5949860
  40.6681061   5.7018846  86.8847561  39.8892188   5.4121810  86.4097404
  40.3912449   6.5002167  87.3344707  17.4264503 100.6781006  70.9431791
  18.1976616 100.1216888  71.0521412  17.1515703 100.5318832  70.0380325
  71.0339594   5.9062684  54.1978168  71.1407375   5.0288779  54.5652628
  71.4659882   6.4837259  54.8271990  48.8692045  19.7605741  51.6342258
  48.1250763  19.2033517  51.4061642  48.5301113  20.3486323  52.3090839
  15.4022241  15.8187163  15.3871286  15.9642553  16.5907574  15.3215086
  14.6699393  16.1014128  15.9349191  62.5515127  22.5059223  76.7018557
  62.9549408  23.2367086  77.1702862  61.6360903  22.7650499  76.5965652
  39.4665408  21.7679310  74.0918732  39.5804596  22.7142215  74.0036106
  38.7674928  21.5522361  73.4745884  24.0530467  19.8950934  55.5117559
  23.7044048  20.1292181  54.6515989  24.1766691  20.7336688  55.9564352
  84.0585899  65.7858038  21.1449552  84.8313618  65.6615877  21.6959667
  83.4335613  66.2420750  21.7083287 100.1900387  89.9956512   8.5550350
  99.4091034  89.5153522   8.2799411 100.4304314  89.6017933   9.3936759
  97.1739388  97.2626400  72.5364017  96.8377495  97.8629398  71.8709278
  96.6428947  96.4725590  72.4364758  65.8045435  90.1775646  13.4424853
  66.4535809  89.7092247  12.9174733  64.9792051  90.0465965  12.9756916
  75.2545261  69.1043901  38.6450052  75.9178686  69.5853043  38.1501007
  74.7186422  68.6783695  37.9760027  85.1551151  37.4009013   8.7680674
  85.6076050  37.6648974   9.5691860  85.8468819  37.3479700   8.1086075
  39.5946789   8.0966032  88.1668472  40.1193714   8.7412065  88.6416340
  38.6897254   8.3099824  88.3943653  68.9986992  28.0237103  52.5197268
  68.8778830  27.2910309  51.9157314  69.7311354  28.5185862  52.1524858
  74.2034006  10.8572030  67.2866154  74.2700338  11.8037808  67.1609879
  75.0642872  10.5212855  67.0370770 104.3899536  99.5706844  33.6294174
 105.2835941  99.6728134  33.3019924 103.8365555  99.9045944  32.9233766
  77.3577881  19.9721467  67.6911831  77.2445154  19.1330338  67.2447586
  78.3037901  20.0530076  67.8127098  58.5791779  64.5596218   5.0677711
  59.0026045  63.9355755   4.4782686  57.6781416  64.2452669   5.1422590
 100.7594490  37.7090740  23.1908989 100.6295395  37.8379464  22.2513533
 101.4225483  37.0211959  23.2488728  19.0964544  46.1560488  53.5304832
  19.3433213  45.2532721  53.3297873  18.9106035  46.5487862  52.6775789
  35.5748463  95.0146580  81.9731331  35.2705812  95.5760098  81.2600136
  35.8432150  95.6246281  82.6602650  52.9649019  38.4143472  88.4967136
  53.0940199  37.5050783  88.7665081  52.3810101  38.7806439  89.1608906
 109.5738888  93.8719177  26.2811708 108.9191628  94.3230915  26.8140888
 109.7633171  93.0677319  26.7645335  66.2061834  26.2219357  72.1269703
  66.9448662  25.6156135  72.1813631  66.6078186  27.0741987  71.9579554
  48.9856195  33.4995222  83.7441635  49.5517731  34.1297197  83.2985783
  49.4698286  32.6746488  83.7072754 103.7495613  37.7231216   3.9922839
 104.2533970  38.3622289   3.4883809 104.3698406  37.0163536   4.1710612
  93.3879375  94.1365719   2.9666862  93.9877605  94.8824883   2.9596612
  93.9212036  93.4032822   3.2735124  27.3742151  37.1343851  71.8429232
  27.2096443  36.2044406  71.6868782  26.9578719  37.5785422  71.1042643
  30.8098507  16.8099678  85.3408337  30.9479260  17.6689243  84.9416256
  30.1022077  16.9492984  85.9701633  69.8476696 106.1673927  25.9958529
  69.8344994 105.5574989  26.7334747  68.9808941 106.0818481  25.5988383
  26.3530064  31.0711050  51.2572384  25.6716561  31.6747260  50.9612083
  27.0805526  31.6380382  51.5131569  58.8589478  40.0580978  81.7797565
  58.6702347  40.2998209  82.6865005  59.1450691  40.8739567  81.3689709
  51.3804960  43.8206100  60.2913809  51.8157959  43.1128216  60.7665443
  51.8582153  43.8830471  59.4642639  99.8119736  93.0588245  21.3783765
  98.8754082  92.8628635  21.3526893  99.8551178  94.0017128  21.5375352
   0.4491007  81.6334820  17.7058148   0.3457846  81.3479137  16.7980659
   0.5029582  82.5876522  17.6520681  84.4395828  55.2196932   7.8502911
  84.0159512  55.8734512   7.2940826  84.7324848  54.5412207   7.2419220
  64.0276670  53.0385828   0.8528508  63.5693502  52.2080851   0.9810869
  63.3363104  53.6615992   0.6289916  90.8421326  90.2930069   4.9475294
  91.0915184  90.4482651   4.0365222  90.0216198  89.8033047   4.8911166
  87.7057362  37.7995586  87.9182053  88.2533073  37.2616053  87.3463631
  88.2893658  38.4932995  88.2253456  17.9479015 100.4763699  43.4208584
  17.5125766 100.2101135  42.6110220  18.6777794  99.8639679  43.5129452
  78.7195349  87.0837975   7.4014169  79.3908596  86.7096424   6.8308365
  78.9491892  88.0108261   7.4655288  60.5010965  56.8290488  91.4960077
  59.9572685  57.6166408  91.5094076  61.3879898  57.1530278  91.3388677
  48.6017799  70.1178455  55.6618881  47.8673077  69.5575333  55.4112196
  48.3475685  70.4806232  56.5104198  92.9730988  52.5112391  78.2304144
  93.5476208  53.1237411  77.7710772  92.2341442  53.0467129  78.5192871
  94.2186737  54.8682404  80.3923225  93.3119869  54.7288036  80.1189899
  94.6952629  54.1206312  80.0315380  90.9803009  17.8040600  57.5297165
  91.6224670  18.5084534  57.6174116  90.3200054  17.9977143  58.1950998
  95.4164028  51.5526056  76.9282627  95.0066853  50.6899786  76.9933987
  95.1859760  51.8616581  76.0521221  33.8059592  37.7276945  90.3906727
  34.6530819  37.9260945  90.7897377  33.8068724  36.7760897  90.2873421
  54.6461487  22.6478982  54.8128223  54.6527386  23.4958267  54.3687439
  55.4796219  22.6170254  55.2825022  86.3124466  35.2091002  78.9033842
  86.8110275  34.3967938  78.9917088  86.7678928  35.8324194  79.4693136
  38.2551622  43.8065434  82.8753281  38.5301995  43.1579304  82.2273445
  38.3705425  43.3671904  83.7178802  70.3948784  67.1457195  27.4637914
  69.6232414  67.1496725  26.8974066  71.0570812  67.6291084  26.9697690
  65.2513878  21.4110901  91.9257697  64.5294182  21.8076279  92.4133663
  65.5092327  22.0810129  91.2925617   0.2389939   1.6128291  27.5774240
   0.7440604   1.6021363  28.3904576  -0.2266832   2.4489164  27.5957227
  22.3730254  65.9735107  17.7112353  22.3684621  66.0912704  18.6611533
  21.5789866  66.4159250  17.4112284 108.5593319  88.2912445  43.3670568
 108.7516117  89.1231441  43.7997293 109.0445805  88.3321095  42.5429821
 105.7175541  97.2960091  29.3069434 104.8184109  97.6224422  29.3418145
 106.2434387  98.0021095  29.6825838  74.3091011  86.0480309   8.9177275
  74.9810457  85.4142189   8.6667037  74.6875000  86.5161514   9.6619749
  22.1504736  98.7376785  13.2327974  21.6658688  98.0387115  13.6719227
  22.1845794  99.4459629  13.8757575 103.4565449  39.4705772  84.1139412
 104.0921307  40.1310158  84.3897724 102.7091122  39.5988131  84.6980000
  89.2049694  92.8071690  13.6016560  90.0198174  92.4585533  13.2401168
  89.4378185  93.0929565  14.4850194  40.4254675  42.2271681  89.4289398
  40.3022575  41.3156652  89.1639709  41.2960148  42.4557257  89.1031456
  54.5071030  44.4098377  68.0199766  53.8948298  44.3517113  68.7534428
  54.4684029  45.3267002  67.7477646  70.1390171  40.5019855  80.2795696
  69.1821480  40.5004930  80.3045940  70.3551197  40.8111238  79.3998194
  92.9191494  80.4462337   5.6440383  93.7137032  79.9750614   5.3932041
  93.1775475  81.3678932   5.6452823  45.6577873  11.0257518  64.1394091
  45.7691431  10.1752055  64.5641470  45.0915766  11.5179980  64.7338247
  58.9285707   4.4984612  14.2377365  58.2509565   3.8567182  14.4504118
  58.4489059   5.2395636  13.8677120  94.7796822  66.8666410  10.6513691
  94.9258137  67.7652836  10.3558850  93.8826847  66.8672514  10.9854925
  64.4002962  35.0671458  81.0024738  64.7576094  35.8964133  80.6848717
  64.0078354  34.6633315  80.2284336  73.3375978  61.2669659   8.2651979
  73.3132458  60.8963585   9.1474044  73.9344597  62.0120430   8.3348018
  50.8001804  13.1047606  61.2635517  51.5126610  13.7266576  61.4113617
  51.1789751  12.2517037  61.4757776  75.3141022  74.4718552   8.4247851
  75.8733749  73.6950445   8.4218329  74.4651842  74.1569757   8.1142747
   0.8686207  83.0328655   4.2178413   0.2099810  82.3383999   4.2059487
   1.0635649  83.1939125   3.2946444  17.1900523   3.2328147  29.5438695
  17.1149373   2.3546149  29.9171710  18.1327140   3.3829227  29.4725370
  44.8562431  13.0175197  74.5785522  45.2306509  12.3201120  75.1167679
  44.3346310  12.5582612  73.9203453  25.3193617  35.7245016  60.2858257
  26.2531352  35.5214620  60.2304077  24.8853540  34.8732686  60.2286434
  48.2863808  27.7638865  77.1250582  48.8553572  28.4328532  77.5058222
  48.2981014  27.0489812  77.7614546 108.1603050  72.1248817  66.3642168
 108.3810806  72.8972864  65.8437490 107.8128815  71.4991093  65.7286549
  63.7755966  60.3453732   1.1106724  63.4154177  59.6182489   0.6029410
  64.7233248  60.2677345   1.0010922  68.9085722   2.0501158  62.8324223
  68.6733532   1.5843706  63.6349058  68.5214996   2.9192123  62.9376841
  13.4332585 105.5343628  52.4742746  14.0824986 105.4667282  51.7741728
  13.8435853 105.1031876  53.2239103  42.3022175  49.8407221  79.4720078
  41.6332340  50.5169630  79.3652630  43.1121254  50.2561712  79.1758919
  60.5482912  34.4768858  88.6604786  61.0510397  34.4096017  87.8487206
  59.6574068  34.2307281  88.4115601  45.1641989  51.3446808  71.0942888
  45.7932472  51.1766148  71.7959166  45.6824923  51.2954283  70.2910566
  30.3978419   2.8801304  10.0168419  29.5349932   3.2372779  10.2270091
  30.8559775   2.8507686  10.8567715  61.0090303  33.2183528  81.9255543
  60.2835751  33.6409378  81.4658165  61.6251755  33.9286041  82.1048260
  63.6681175  19.7955763  88.1162071  63.6001158  18.9450073  88.5499573
  63.0940199  20.3696036  88.6232853  76.5406418  39.2121506  82.7041721
  76.5136290  38.3335185  82.3253536  76.3387632  39.7949028  81.9721317
  43.6217785  52.8116655  79.3020821  43.3058310  52.6929235  78.4063673
  42.8485060  53.0874681  79.7942305   6.7398185  89.1574669  14.0299439
   6.5989059  88.2681751  14.3547976   7.2877955  89.0447235  13.2532585
  47.8800488  42.6780272  74.4889641  48.2465696  43.1622982  75.2288151
  47.0699120  43.1416607  74.2769527  44.9599163  39.6693947  91.7342134
  44.0415470  39.3995525  91.7371909  44.9291794  40.6242706  91.7932774
  74.3158913  22.0044494  60.5232763  74.0341282  22.2882247  61.3929367
  73.5119867  21.7097163  60.0953674 100.0222206  40.1965857  83.0554962
 100.8413792  39.7928071  83.3421612  99.3671989  39.5056319  83.1542683
  81.1467361  10.4342306  88.7107944  80.8678913  11.0793018  88.0608940
  80.3717041  10.2910948  89.2540073  37.5752401  15.0015664  71.5389299
  37.9988647  14.5531857  72.2708654  37.1677423  15.7724500  71.9337940
  44.4452524  40.3001928  67.9355574  45.1387215  40.9590292  67.9711580
  43.6423206  40.7873583  68.1204987  13.8598740 104.4477844  78.1612253
  14.4220567 104.0843868  78.8454247  13.2866228 103.7228203  77.9121256
 105.8552647  53.9125919  83.9746380 106.1726761  53.9433527  83.0721283
 106.5271187  54.3696547  84.4805336  21.2142515  14.9716318   6.8892574
  20.6463885  14.2656934   6.5803641  20.7895279  15.7725084   6.5819478
  41.9907236  12.0873570  84.9327087  41.2927008  12.1980214  85.5782700
  42.7956915  12.2734535  85.4160500  39.1372418  36.3922501  84.9536324
  40.0284100  36.7111850  84.8110485  39.0221477  36.4196801  85.9034920
  52.9920435  43.3344793  75.4762983  52.6962566  44.1456032  75.8896065
  52.8550625  43.4789562  74.5400333 111.1111355 105.9259701   5.1076019
 111.5888596 106.5417576   5.6633049 110.9546280 105.1674652   5.6701076
  41.4928341  47.8715611  55.1332998  41.8191242  48.2958364  54.3397236
  42.1585894  47.2176266  55.3463078   3.1515864 101.2245083  22.1143627
   2.4891874 101.1396408  22.8001165   2.6628724 101.5135288  21.3437414
  13.9527440   9.4581050   3.2334030  13.0837095   9.1244501   3.0104995
  13.8137197  10.3882241   3.4116790  48.4009409  39.9839973  65.6236553
  47.5157833  39.9699688  65.2596092  48.9375639  39.5420432  64.9656725
  35.7722855  55.4731464  89.9298573  35.4128647  55.0525379  90.7109737
  36.7183280  55.3478050  90.0041676  40.3570795  28.4830976  73.8488340
  39.9925590  28.9956164  74.5704174  39.9846816  28.8797212  73.0612803
  47.3002958  11.0906160  72.9943371  46.5717077  11.3446212  72.4278831
  47.2710228  10.1339567  73.0077410  73.0300951  13.5356808  79.7502041
  72.2465706  13.9724934  79.4162607  73.6662245  14.2412937  79.8671675
  67.5828838  74.9978113  81.2520981  66.6297150  75.0640345  81.3097191
  67.8329563  74.4733906  82.0128059 103.4325600 102.0853329  17.6673877
 102.9625034 102.8419113  17.3168635 103.2825375 102.1266747  18.6118531
  79.5558214  42.5980282  81.9078445  79.6800566  43.5463047  81.8682384
  80.0502205  42.2603035  81.1610222  95.4748447  92.7553485   0.6397137
  94.9864013  93.5258482   0.3499111  96.1416013  92.6267384  -0.0349155
   2.2001016  89.9249935  32.8954124   2.5274155  89.7810841  33.7833238
   2.7699676  90.6056976  32.5374627  82.6212215  95.2144718   4.6759033
  81.7166996  95.1452637   4.3704787  82.5973988  95.9022045   5.3412563
  33.4149981  49.0915060  63.2224894  32.9892898  48.9466238  64.0674829
  33.5202599  50.0412846  63.1670523  50.6993389  50.4147530  73.9349651
  51.4218712  50.4749012  74.5599127  50.8945751  49.6334553  73.4175825
  39.1584826  33.3278513  64.4266129  39.2296457  34.2484546  64.6789217
  39.8091769  32.8802896  64.9674606  72.7655745  79.1785240   5.3308183
  72.3151207  79.6455765   4.6271259  73.6845112  79.1704226   5.0629997
  80.8506966  42.2895956  85.8972931  80.1688862  42.8572941  86.2565804
  81.6704464  42.7357817  86.1098099 109.1171360  78.8952065  12.1274590
 109.4413185  78.8769197  13.0279052 109.7437572  79.4462156  11.6584456
  27.3640633   3.1356952   4.8460674  26.8865013   3.8922381   4.5057580
  26.8287539   2.8227648   5.5752802  97.6029587   4.4535145  27.9130912
  96.9540882   4.3079033  27.2246170  98.3944321   4.0218538  27.5914359
  70.8745527  90.2282143   4.4121060  71.1442280  89.9938869   3.5240757
  71.6390514  90.6654549   4.7870624  61.3496351  34.2978168  71.2170172
  61.3863754  33.6338401  71.9055080  61.9698906  34.9700379  71.4992094
   8.5490859   8.4727275   2.6425630   8.2813084   9.3303049   2.9728484
   7.7430785   8.0850583   2.3015399 105.5133247  28.8951612  86.7540455
 105.7238007  28.4739637  85.9206676 104.7287750  29.4117069  86.5699387
  64.7037029  24.4094801  70.1370239  65.2327538  23.7480235  69.6911383
  65.2315760  24.6693158  70.8920574  27.7571988  33.4891081  66.7168045
  28.0775237  34.2994046  67.1130943  28.4103560  33.2735395  66.0511112
 107.2952271 104.4230175  26.3777423 106.5546322 103.8242626  26.4739680
 108.0635071 103.8524246  26.3577104  49.8425579  91.6596031  70.6858253
  49.8191881  92.6137352  70.6129932  50.2032328  91.4946556  71.5569925
  41.6183949  33.1964993  74.5665693  41.8788815  32.2940397  74.3823195
  40.6737947  33.1478834  74.7135353  42.6241302  16.0549998  76.0861969
  42.0869160  15.2629244  76.1019993  43.1632805  15.9945035  76.8747950
  80.2383518  24.5772505  82.0168400  80.6100845  24.7077703  82.8892040
  80.9729767  24.7189450  81.4197922  55.4938221  37.9503250  74.6314430
  55.2613211  37.4254656  73.8654804  56.2285900  38.4892845  74.3384123
  71.9359303  50.1724195  89.8951435  72.5956297  50.5887651  89.3404484
  71.6074657  50.8804512  90.4492474   0.2360837  88.3330154  16.1046922
   0.5526435  89.1397476  16.5111363   0.9130822  88.1039810  15.4679441
  63.1522036  52.4365854  89.5067120  63.0402327  51.5432930  89.1815662
  64.0951109  52.5242519  89.6462536  50.3541231  31.6030407  80.2134514
  51.2913132  31.5268111  80.0342941  50.2952576  31.6434288  81.1679840
  58.4411669  29.5405579  52.4991083  59.1089439  28.8660645  52.3751497
  58.0596352  29.3454218  53.3550215  76.5282726  28.9449525  41.1874485
  75.7385111  28.8628387  41.7220163  76.6708517  28.0667710  40.8343220
  21.2302899 104.3240452   6.2706375  20.5239654 103.7122726   6.4781833
  21.1949253 104.9768257   6.9698215 110.1941395 101.0271454  16.4191520
 111.1419678 100.9120560  16.4870238 110.0350857 101.9085217  16.7569637
  36.9332910   6.8113017  13.5345984  37.4086714   7.1487719  12.7754152
  37.5141263   6.1466247  13.9048243  65.7464695  13.6830938  61.4458704
  65.5387926  12.7934813  61.1600494  66.1651611  14.0872359  60.6858730
  65.5865383  18.7395537  91.2354279  65.5371332  19.6903634  91.3341808
  66.3213634  18.4789443  91.7907238  18.7594926   7.4584717  16.1747146
  19.3014693   7.1470416  15.4497981  18.0017185   6.8736565  16.1756718
  99.1588402  35.2894115   2.1231732 100.0575256  35.3109813   2.4520093
  98.6842823  34.7528672   2.7581117  57.1611977  16.8361723  85.5240822
  56.4228296  16.2343228  85.4301548  57.9238081  16.2661290  85.6225872
  40.7948160  39.1145325  73.5822725  41.7361641  38.9538980  73.5167789
  40.3913927  38.3217144  73.2288313  33.3034825  51.5255547  73.4873295
  32.5767636  51.8431616  72.9513836  34.0230513  52.1270418  73.2958412
  29.8244333  23.4021497  52.0705605  29.4126153  24.0341353  51.4812946
  30.6775737  23.7853527  52.2743750  70.7910872  10.6135178  83.9955521
  71.1076498   9.8063046  83.5900593  70.3806829  10.3267610  84.8113823
  78.6908340  84.5798206  80.4061127  78.9673567  84.8376369  79.5267439
  77.7417135  84.4760990  80.3379631  95.1825428 100.0007820  12.8359747
  96.1340046 100.0306988  12.9362655  95.0312233 100.2267361  11.9182181
  28.4110522  42.9071665  66.4210939  28.5461354  43.3339024  67.2671890
  27.6743150  42.3137474  66.5670538  90.4873562  97.1650696   2.7774966
  89.9415874  97.4642944   3.5047039  91.3730335  97.4411011   3.0133578
  75.0182295   8.9880478  50.1344442  75.5037928   9.3849081  50.8576059
  74.3590164   9.6417415  49.9013042   2.5789449  99.3447018  18.4902549
   2.5842813  98.7887001  19.2693973   3.1812698 100.0581551  18.7010121
  53.1290674  53.1667852  90.4060555  53.0599499  54.0728092  90.1050949
  53.9943457  53.1146049  90.8120155  83.8447475  91.1403179  24.9764156
  83.2494545  90.6664276  24.3956494  84.6995449  91.0714436  24.5512009
  93.3926392  11.3643336  66.0367393  92.6753712  11.3035858  65.4058218
  93.0935955  12.0089686  66.6780281  28.6238050  22.1684885  47.4880171
  29.4701171  22.3955655  47.8732777  28.8235998  21.4682126  46.8667889
  98.0657482  60.1263618  91.2092400  97.3757935  60.0501919  90.5501556
  98.8019180  60.5200481  90.7409477  89.9267006  96.6156101  27.2603106
  90.1201725  97.3397827  26.6650176  90.2484608  96.9127274  28.1114435
 105.2531338  65.1939344  11.1765909 105.7235813  65.0307322  11.9940722
 104.4499683  65.6388330  11.4471734  26.3613439  19.4341242  60.1001596
  26.4302921  20.1324987  59.4492006  25.6588602  18.8714767  59.7743130
  98.1066799  66.4066935  28.9729619  98.9016247  66.6244936  29.4596410
  98.1289387  65.4531574  28.8922763  90.4139519  59.9524641   6.6822946
  89.6072102  60.4413319   6.5197712  91.1144638  60.5779028   6.4969867
  65.4221773  32.5056553  74.6106005  64.8604631  32.2983050  73.8637972
  66.3130713  32.4229908  74.2704439  29.1640878  39.8663402  88.1124496
  29.7288537  40.3696489  88.6989212  28.4334230  40.4541969  87.9206562
  88.9547825  83.3170033  55.3535128  89.2262650  82.4057007  55.2437687
  88.3170700  83.4627533  54.6547222  93.7950706  36.4668441  78.2309008
  93.8358021  37.4078894  78.4012032  93.5756111  36.0793781  79.0782118
  49.6207857  24.5606327  43.7329626  49.7834301  25.4022145  44.1590118
  49.3847179  24.7889996  42.8338814  34.4150925   8.1809694  26.0175419
  33.7783837   8.4029639  25.3381658  34.1265059   7.3300004  26.3473940
  40.4541636  10.6030130   5.7240152  39.7748327  10.3442836   6.3467532
  41.1922789  10.0264621   5.9215170  58.7946033  54.7811413  81.4391708
  59.4119358  54.6620417  80.7174110  58.4031439  55.6400585  81.2802601
  47.2534275  17.2836125  35.9694004  47.8832054  17.1767378  36.6822720
  46.5506411  16.6675651  36.1763072  97.6591015  76.9961309  17.0240855
  98.4230709  77.4802685  17.3374498  97.7595043  76.9801998  16.0722995
  40.1339531  21.3019061   3.1182742  40.7874537  21.8725944   3.5226095
  39.6777797  21.8653727   2.4932598  91.1881542  73.5448933  71.0894775
  91.8580627  74.0674877  71.5303230  91.4673996  72.6386023  71.2194347
  67.9078913  37.1371603  74.6859884  68.0988836  37.8881717  75.2478933
  68.7679100  36.7867756  74.4539690  80.4749775  70.5676651  71.4735222
  80.9869576  71.1947775  70.9628057  79.6049261  70.5878353  71.0749865
  29.3914676 100.8716297  11.8309450  30.3137398 101.1149502  11.7506886
  29.3977046 100.0862217  12.3780560 112.3019600  86.8926907  18.3889699
 111.3796520  86.9563198  18.6370087 112.3632717  87.3803234  17.5675750
  12.5555456  93.8582230  36.8623114  12.5435925  93.4142303  37.7102304
  12.5034988  93.1500721  36.2203979  96.2631798  72.6246929  77.1816635
  95.4088688  72.9941463  77.4050522  96.3284683  72.7290869  76.2324190
  93.4882164  25.9757423   1.5098499  93.4732819  25.0903177   1.8732077
  93.9917755  25.8938074   0.6999448   8.0873561  81.6704655   3.3914113
   7.5016528  82.4273300   3.4096146   7.8469282  81.1628628   4.1665018
  60.1171160  65.7524920  76.4944983  60.9468937  65.9377527  76.0547495
  60.3412247  65.1106215  77.1682978   1.9064003  83.2567120   1.6984014
   1.8397984  83.1795979   0.7466403   2.3260006  84.1051102   1.8411793
  50.9210062  62.9613686  91.0571575  51.4663553  63.5764885  91.5475178
  50.8028746  63.3750439  90.2020836  68.6655521  82.0117950  58.2041168
  69.0252686  81.8241215  57.3371553  68.0857086  82.7607250  58.0658484
  81.4525223  78.3602667  81.7440987  81.4977932  77.4519682  82.0427227
  81.2716389  78.2953596  80.8063889  14.3477976  94.9988556   4.9035212
  14.8960137  94.5086098   4.2908624  13.4712970  94.6323490   4.7867012
 104.1810417  90.8075333  39.5535898 103.5403919  90.5117226  40.2003527
 104.4329548  91.6825199  39.8488402  88.0494404  57.3666525  87.6377392
  88.1166553  57.8856134  88.4392357  87.6218319  56.5556192  87.9126835
  72.0088577  84.7900486  32.5366950  71.6017246  84.6959591  31.6755199
  71.3137102  84.5673466  33.1558895  99.6280193  75.6352234  26.9183898
  99.5418453  76.5304899  26.5908194  99.4241524  75.7008696  27.8513193
 109.1783905  86.1511230  15.8673608 108.2306671  86.0268021  15.9182525
 109.5416451  85.2729893  15.9820616  51.2266922  77.0359182  82.3249054
  50.8425808  77.5961828  82.9992962  51.6808939  76.3496637  82.8137779
  24.3869042  23.3039188  19.0221775  24.4951892  22.3792744  18.7995982
  25.1412034  23.7365222  18.6220241  63.7048864  73.5156584  57.1643114
  64.0615654  74.3788147  56.9546175  63.0189085  73.3749771  56.5117216
   3.1055920 105.3908421  13.5943663   2.2235577 105.6706089  13.3494675
   3.6862128 105.9511888  13.0794632  87.9834938  20.3454852  85.2933502
  88.2606888  19.5482767  84.8418522  88.7254524  20.9431911  85.2012825
  75.4225111  55.1828814  76.5694332  75.5938053  55.1091623  77.5082922
  74.5071888  54.9204874  76.4716387  54.4030809   9.6135825  57.4155188
  54.2652130   8.6670542  57.3793411  53.9418268   9.9523038  56.6482210
  48.1215811  50.5106115  89.8116016  48.2029533  50.8700275  88.9281845
  48.8651037  49.9138308  89.8968029  81.7013264  46.1512375  85.6104469
  82.4450111  45.6244087  85.9030342  80.9690475  45.5355644  85.5795956
  55.1654100  12.8930950   6.0023928  54.9268532  13.6606264   6.5222174
  55.9364510  13.1694961   5.5070895   6.4132804  98.9429188   2.5463256
   6.5051025  99.3513203   1.6855106   7.2890246  98.6148071   2.7503985
  61.0510492   9.4316882   8.1787938  60.0993776   9.5344383   8.1790507
  61.2224054   8.7892681   7.4901974  75.5117035   6.2419629  28.1431890
  76.2538910   6.8210524  27.9698658  74.8495388   6.8118149  28.5343909
 106.2470913  70.4725313  77.2334051 106.3908672  71.2333584  77.7961683
 107.1129608  70.0747156  77.1426392  59.6902180  17.8481209   4.7423553
  60.2171135  18.3358228   5.3754103  60.3289223  17.3497057   4.2325822
  96.0649681   3.8872951  86.3065720  95.2290058   4.1708347  86.6767025
  96.3145351   4.5931298  85.7101250  66.8646622  38.6205244  81.4268875
  66.5299940  38.0452609  80.7389259  67.2187901  39.3753433  80.9567070
  16.7997658  71.3658476  20.9759760  17.7051795  71.2012291  21.2393355
  16.3054156  71.3506508  21.7955017 101.9053555  65.7008076  84.3707848
 101.7825317  65.4560184  83.4536076 102.6912117  65.2264309  84.6421337
  50.4446173   5.4636753  11.3160396  51.1846876   5.6912792  10.7532573
  49.7075415   5.9544796  10.9526360  77.1151972  58.4913921  91.3446236
  77.2853661  59.2941189  90.8517647  77.9541540  58.2790852  91.7536545
 100.2726173  36.3510203  84.2247772 100.5130196  35.4343748  84.3596745
 100.0051594  36.3958859  83.3067989  19.3446374  18.5940409  28.1543636
  19.7978950  18.7694526  27.3297310  19.9665475  18.8614357  28.8310909
  43.5366821   2.6080930   1.1744013  43.8867617   3.3040655   1.7305459
  44.2562628   2.3900837   0.5820286  18.2986677  17.1058929   5.6396198
  18.1082880  16.9083726   6.5566653  18.6304903  18.0036545   5.6518739
  52.0526934  94.9199963  66.3716841  52.6482010  94.6237755  65.6833124
  51.6683245  95.7254314  66.0256195  60.6829643  38.4239650  86.3471699
  60.7355642  38.8942122  87.1792412  60.0867367  38.9485860  85.8128357
  67.0552778  37.8219509  89.3381882  67.0272350  36.8671179  89.3992996
  67.0590210  38.0017710  88.3980370  71.9872522  76.5744400  84.8278809
  72.6410770  76.1531878  84.2699528  72.1222496  77.5118732  84.6892071
  64.1777563  55.7968760  12.0360422  63.5049582  55.3791666  11.4983642
  64.9653196  55.2749825  11.8823993   0.4002153  96.0525703  23.5285473
   1.2506273  95.6449986  23.3644867  -0.1978238  95.6095409  22.9266334
  63.5361767  73.5164404  88.5971165  63.4491777  74.2284393  87.9632950
  62.6472569  73.1762409  88.6986828 107.7774525  96.4504719  38.6197853
 106.9513607  95.9811020  38.7359500 107.5923920  97.3395252  38.9224100
  44.9120522  41.3327932  88.9836597  44.7704744  41.7665815  89.8250961
  44.3067074  41.7693186  88.3843040  59.7691965  51.1938095  80.4024887
  59.8192883  50.5440044  79.7014380  59.4993019  52.0001125  79.9628735
  65.5715132  58.3813763  88.8031578  66.4112663  58.3755016  89.2625141
  65.3844643  59.3088150  88.6578751  70.9065342  82.3678207  65.4912138
  71.2725067  83.2469940  65.5879402  70.3242970  82.2665787  66.2441969
  81.5028667  57.6711893  87.4276066  81.0688305  56.8182087  87.4112797
  80.8039761  58.2991028  87.2445583  29.0485263  24.4203949  17.3362136
  28.2943535  24.9242377  17.6421475  29.1862011  23.7594366  18.0147517
  77.1043444  77.2444201  83.7303448  77.2177744  77.8855896  84.4319630
  76.5816021  77.7008057  83.0710411  18.2121599   0.8808523  21.4337754
  19.1665292   0.8107767  21.4114022  17.9816461   1.2808022  20.5952454
  70.8024120  27.1505737  84.3942356  70.0326872  26.7229772  84.7696304
  70.5748320  28.0801392  84.3757057  72.4008656  64.6280718  87.5828171
  72.3752880  65.2414513  86.8484211  71.5459585  64.1978836  87.5654697
  17.0559192  18.6622369  35.4069495  17.0998311  18.0497026  36.1411858
  16.1602736  18.5797596  35.0794649  54.1900873  53.3141041  84.7337341
  54.5845985  54.0500832  85.2016354  53.4004593  53.6795187  84.3347549
  83.4705639  73.9890146  79.2112923  84.0974426  73.7373734  78.5331106
  84.0012074  74.4248772  79.8781300   1.9453637 105.8850577   3.4488499
   1.2773769 105.5345872   2.8596163   2.6408951 106.1916641   2.8670758
  32.6986408   5.7291305  23.7538266  32.8669333   5.8556652  24.6875811
  33.5418677   5.4545689  23.3935285  94.2220306  65.6141806  85.7866764
  93.3997059  65.1292324  85.7171535  94.8048496  65.0292397  86.2708092
  81.9337940  67.3563099  10.4750717  81.4830971  68.1639910  10.2285922
  82.8052139  67.4406290  10.0881016  90.5316353  75.9496975  84.4340801
  90.7849407  76.1142159  85.3423786  90.4154873  75.0007915  84.3859386
  56.6100788   0.1704037   2.3567602  56.9523716   1.0104270   2.6624218
  56.2566185   0.3579187   1.4871995  50.7586193   2.1492523  28.4189463
  50.6105709   3.0910993  28.5040236  49.9835491   1.7484565  28.8124681
  18.3070970 100.4376888   2.5551772  18.6711121 101.2796211   2.8288066
  17.4942183 100.6637573   2.1031228  59.1973448   2.9944921   7.8281271
  58.2632780   3.0167100   8.0361211  59.6103811   3.5023022   8.5265249
  72.2215939  20.4505420   5.5665255  72.0749092  21.1469078   6.2066716
  71.3552618  20.0688338   5.4251015  21.7780375  22.0041084  24.1507220
  21.8792510  21.7236423  25.0602984  21.1036038  22.6825905  24.1829276
  72.2516346  45.2370405  83.0225754  71.9074440  44.6169233  83.6653996
  71.6804790  45.1346159  82.2613144  96.6873455  72.1801996   9.8139346
  97.5345802  72.2849035  10.2469075  96.0453129  72.4146843  10.4840422
  20.5514312  30.7557583   0.5473273  19.9382257  31.3478684   0.1118805
  20.8218694  31.2278199   1.3348888  93.8168144  20.5778694  88.0947590
  93.1393242  20.1020432  87.6143074  93.3926487  21.3930392  88.3627415
  96.9281101  80.9569740  67.6397991  96.1159134  80.6583786  67.2306395
  97.6194572  80.6425571  67.0572138  94.7234631  45.7440710  60.4153967
  94.5594788  45.5814266  61.3443136  94.5565319  46.6798782  60.3029728
  95.7091808  68.8318968  91.4496326  95.5830479  67.9476690  91.1054420
  96.0270786  69.3370962  90.7013321  13.1348002  80.6656170  17.1344459
  12.6650047  80.0934029  17.7411485  13.4201455  81.4034271  17.6733875
  18.2960236  16.1336708  28.0254674  19.0927243  15.6351447  28.2070494
  18.5784292  17.0482171  28.0346775  29.6693134  22.7104712  10.7504249
  30.0717592  22.0307660  10.2098048  28.7400079  22.4819112  10.7700670
   1.1043091  94.9590874   5.6651580   1.5223542  95.6943703   5.2170146
   1.4391841  95.0027752   6.5608042  90.1892185  30.7235408  82.2914886
  89.9558544  31.5757370  81.9233322  90.2683258  30.1476502  81.5310097
  74.9669313  73.5729980  73.4910583  75.0016832  72.6616240  73.2005072
  74.4509172  74.0189886  72.8194523  88.4335709  47.3240471  80.0232410
  88.6137867  47.3791981  79.0847778  89.2100716  47.6991272  80.4386902
  11.7827523  77.2584629   7.8344840  12.2047818  77.6658487   7.0780718
  11.5969038  76.3630867   7.5516534  11.2723255   7.9849690  17.1072078
  11.8610394   7.5286847  17.7084172  10.4875135   7.4376971  17.0790267
 100.9961414  36.6133618  90.8701134 100.6826401  37.0298529  90.0673199
 101.2222195  37.3435688  91.4462376 101.7571449  11.2775767  84.9421215
 101.2475967  10.5528653  85.3045940 101.4013481  11.4041567  84.0625668
  42.9407549  34.9779224   5.4653531  42.2466612  35.4229546   4.9791270
  42.6735163  35.0473189   6.3818675  87.6573086  34.0228915  81.2416553
  87.3086929  33.3535147  81.8304157  88.0358887  33.5286927  80.5145645
   6.2079531  97.5643539  13.2042837   6.1000448  96.7108345  12.7846408
   5.3532523  97.9856396  13.1135321  73.8155127  76.2695551  62.0875359
  73.4202480  75.8071184  62.8265524  73.3999109  77.1317959  62.0945692
  34.8512697   6.7350858   0.0482662  35.4784584   7.1219778   0.6591527
  35.3837752   6.4543760  -0.6959593   5.5615824 103.9725113   5.5568302
   6.3457310 103.9659500   6.1057383   5.6843412 104.7208405   4.9727350
  85.9667492  33.4787917  72.1332502  85.9219074  34.3764925  72.4624205
  85.6585312  33.5395575  71.2290668  25.4564357  20.7894468  17.5952792
  24.9770904  20.9392953  16.7804146  25.1570344  19.9310672  17.8949010
  34.7610831  33.1161213  14.2571712  34.2062449  32.3375893  14.2094743
  34.7401381  33.3689809  15.1801324  24.5566154   1.2695320  16.2815058
  23.6874914   1.6520856  16.4019573  25.0384378   1.5163416  17.0709133
  78.8377285 102.0020390  90.6058979  78.8226557 102.1715546  89.6639442
  79.5768356 101.4066696  90.7303143  81.5878296  30.6189632  17.8323805
  81.3370800  30.9946513  16.9884515  81.4395809  29.6789145  17.7296114
  75.9211111  32.3444057   4.0378422  76.6880226  31.9718766   4.4729236
  75.6442213  33.0592537   4.6110436  89.5988941 101.1184978  78.6949158
  89.1551495 101.0620117  77.8486729  90.1898670 100.3656006  78.7061977
  14.8886728  16.0544276  58.1318045  14.2776179  16.7240775  58.4390688
  15.2121603  16.3907325  57.2960520  42.7235937  22.9369664  24.1147947
  41.9879627  22.3277736  24.0518355  42.7230501  23.2194352  25.0293684
  87.7914238  50.8285809  90.6856251  87.2247696  51.5710783  90.8949661
  88.6732292  51.1318731  90.9016895 100.1488972  78.6253738  63.2855797
 100.2896690  78.0793047  64.0590334 101.0101223  78.6807251  62.8715086
  46.1888456  21.5364170  18.6395264  45.5914927  20.8201432  18.4242237
  45.6226778  22.3037720  18.7223125   1.1147963  70.8036947  76.3965082
   1.9043836  70.4920578  76.8388510   1.2714872  70.6212759  75.4700089
  67.3992348  43.6179447  23.6456561  67.4790096  44.5717239  23.6322379
  67.9007196  43.3464479  24.4144464  14.0397787  47.1762562  47.3420525
  14.2267418  47.9415178  46.7983150  13.1026149  47.0215225  47.2236729
 103.8531017   3.6399248  89.6084881 104.2436218   3.0848807  88.9334679
 104.5645046   3.7991032  90.2288151  15.2804899  26.8550706   9.3499297
  15.3556526  26.7298627   8.4039348  14.7828186  26.0957551   9.6532369
  79.5385647  71.5721703  77.6810169  79.1293192  71.4281797  76.8277788
  80.1945877  72.2504950  77.5205851  96.1392784  86.6173077  78.7006712
  96.7343521  85.9050560  78.4665442  95.4578400  86.5906620  78.0289793
 101.2698936 100.2776814  81.9053841 100.4346466  99.9071312  82.1904755
 101.9314671  99.7181320  82.3121548  40.0242281  26.1181164  30.0386834
  40.3997612  26.4204168  30.8656192  40.2735901  25.1954985  29.9854803
  55.1598215  23.0629468   1.5292916  56.0594559  22.7696061   1.6736642
  55.2075005  24.0174198   1.5835355  45.5688047  18.8856447  12.2298026
  45.0699234  19.6894181  12.3757422  45.3781605  18.3431435  12.9950321
  10.2415383  31.7952061  60.0062609   9.9046290  31.2925291  59.2646170
  11.0282600  32.2229266  59.6680975  67.2966480  19.4882333   2.6236078
  66.4813232  19.0816891   2.9172087  67.9749155  19.0810823   3.1625080
  83.8561821  56.0623360  87.4749660  84.5651531  56.6899061  87.6155186
  83.1000996  56.6025829  87.2453785  86.1370564  85.1030731  64.6825171
  86.9797707  84.6699238  64.5467091  86.3527012  86.0339069  64.7398949
  76.7821693  83.0872345  86.8229198  77.3121977  82.6837254  87.5102901
  76.5418482  82.3605442  86.2481117  88.9451218  58.6354494  15.1657617
  89.6411133  58.2925320  14.6051896  88.4531593  59.2304707  14.5999432
  69.4954634  65.2426243  84.6986198  70.1498604  65.6728935  85.2489471
  68.7921619  65.8865070  84.6149158  62.8518486  10.5035782  62.9102516
  62.9053259  10.8421648  63.8039684  62.3157501  11.1443281  62.4430561
  61.0314035  42.0212317  30.5989718  60.7457066  41.7184401  31.4609051
  61.9813442  41.9038248  30.6066132  60.4951668  72.4508572  91.5156078
  60.5245924  73.4075451  91.5260220  60.5456018  72.2197580  90.5880928
  89.8354530  67.7995491  88.5803890  89.5335197  68.5477066  89.0954876
  90.6746101  68.0821037  88.2168007  94.7044754  76.9759083  72.7131319
  93.9378929  76.7006159  72.2103500  94.3665695  77.6274729  73.3275557
 110.7787132  59.7661114  81.5819645 110.0757313  59.8237371  82.2290516
 111.5535450  59.5272446  82.0907021  13.6701095  29.6166635   6.4711022
  12.7768636  29.4313788   6.1812508  14.1527951  29.7909975   5.6631082
  70.2085924  74.6986246  65.3643894  69.4633007  74.2246675  64.9954176
  70.2500343  74.4079304  66.2754393  98.2103062  66.8565273  82.7288151
  98.4731960  65.9366560  82.6977158  98.0715179  67.0346498  83.6589909
  71.8830681  89.9701214  55.1817036  71.4648438  90.2188683  54.3574190
  71.5027761  89.1181755  55.3956985  43.1791019  11.6281354  45.0634575
  43.9416742  11.6989434  45.6376505  42.5401020  12.2344184  45.4380608
  75.1265764  78.6033583  86.3718414  76.0617924  78.7081242  86.1968517
  75.0718498  77.8215981  86.9214725  73.7146330  94.0855789  81.4096451
  74.6037865  94.3983650  81.2429047  73.1891537  94.4733334  80.7098198
 100.4908085  27.0847034  67.4759912 101.0179901  27.4722624  68.1746435
  99.6287251  26.9539380  67.8708887  99.0863037  58.3413649  56.6710615
 100.0072861  58.3589649  56.9312811  98.9309406  59.2018938  56.2817240
  98.5068417  71.3187027  70.6949139  97.6646996  71.5736151  71.0717964
  98.7214375  70.4913187  71.1257410 107.6574993  74.8872375  19.2828190
 106.8538761  75.0824928  18.8008487 107.4820900  74.0496349  19.7116351
  87.3280048  90.5678082  60.2161074  86.7113304  90.0522041  59.6963978
  88.1606483  90.1035976  60.1297855  95.9131050  71.9992590  71.2658358
  95.9733009  71.0653543  71.0647631  95.4133034  72.0369577  72.0813179
  66.7587852  39.3096781  18.8278532  66.9882870  40.2151918  19.0366793
  65.8050346  39.2807269  18.9037228  87.8243160  52.0610428  88.3172894
  87.5660610  51.5107727  89.0567017  87.6178551  51.5357494  87.5441933
  82.6062012  40.9056091  91.4507294  82.1656322  40.0730371  91.6208839
  81.9292641  41.4598179  91.0623550  29.8635912  58.8633394  24.4407153
  29.7415495  59.5381880  23.7729454  30.7833266  58.9408731  24.6943045
 106.0491276  67.1765566  86.5098667 106.3152695  67.9415846  87.0199013
 106.3258171  66.4281368  87.0385838  43.6191845  34.2983174  24.2182279
  44.2284203  34.5531702  24.9111295  42.7524137  34.4063711  24.6097255
 109.3854523  78.9519787   0.3847630 108.5216618  79.2231035   0.0739874
 109.9803543  79.1845751  -0.3281318  10.6387353  92.6533413  66.3886309
  10.4836559  93.2289410  65.6397247   9.8190558  92.6766396  66.8824100
  95.5367184  68.3574057  66.7947006  94.7902775  68.2183266  67.3775578
  95.5383873  69.3000507  66.6284275  48.5875750  11.2217438  20.6785512
  49.4430923  11.4768100  20.3332067  47.9856205  11.3491607  19.9453068
  19.5744526  53.6915827  79.5097113  19.5930016  52.7390575  79.4170427
  20.4642773  53.9705992  79.2938566 110.7585239  75.5481386  86.5753269
 111.5443516  75.3051805  87.0648956 110.2623844  76.1018705  87.1782112
  31.2450876   1.1450357  72.8154945  31.3649358   0.6849546  71.9847155
  32.1185388   1.4660520  73.0396843  38.3075333  19.2412436  13.6916423
  38.2096720  18.4114647  13.2246065  37.6767826  19.1877985  14.4096470
  80.1250172  68.7058830  62.7123022  80.3269386  69.6335983  62.8339672
  80.4104519  68.5137796  61.8190718 108.4627247  79.3110991  65.3199053
 107.9730988  78.4908438  65.3805494 109.3796062  79.0495586  65.4045391
  86.4339733  61.5945101  81.5026665  86.0571766  62.4108601  81.1742973
  86.5898323  61.0697651  80.7174397  90.8108330  78.6584520  60.2756929
  90.6870556  79.4330359  60.8242655  90.0238228  78.1334734  60.4214668
  91.2200832  60.0460672  65.0309658  90.2711582  59.9918079  64.9176693
  91.5482807  59.2071342  64.7073841  72.6065731  69.2429066  90.3081799
  73.2897043  68.6173105  90.5494213  72.1812153  68.8508224  89.5455742
  66.8114090 101.1193275  70.8515263  66.4968491 101.6745663  71.5649700
  67.5876713 101.5712452  70.5207396  76.3397741  73.1253147  88.8023663
  75.7649517  72.3677826  88.9117241  76.4835978  73.4472847  89.6922398
  62.0858240  69.6134710  53.5083485  61.9165802  69.5297337  54.4467402
  62.4761295  68.7755871  53.2596684 106.4294529  14.5152676  81.9137669
 106.6512585  14.5937908  82.8415966 106.0981178  15.3803229  81.6726685
  81.3135624  40.4725122  66.8755531  80.6896591  41.1637020  67.0974159
  80.7791615  39.6816921  66.8031073  92.3218250  82.0289803  70.3370094
  92.3934555  82.1476936  69.3899012  93.0442524  82.5427341  70.6981039
  82.2201443   2.2511895   9.2180169  82.6861000   2.3670910   8.3899587
  82.9065514   2.0438072   9.8521060  86.3724422  79.9032545  85.6520844
  86.8281937  79.2338228  85.1418114  86.3848782  79.5702219  86.5493965
   4.9800223  68.2000303  89.2420292   4.7006804  68.5173988  90.1007938
   5.8688712  67.8746128  89.3844509  90.8787441  95.0844383  79.9530554
  90.0870705  94.7805882  79.5090151  90.5564404  95.5580616  80.7198906
  84.0739822  59.8673391  74.6922874  84.2016602  59.3783998  73.8793468
  84.8933792  60.3467560  74.8146486  38.6203837  22.3307920  27.0659137
  38.6180401  21.3961577  27.2725177  38.2411242  22.3831081  26.1886144
  77.3102760  65.4841280  71.5009499  77.2620487  65.7426977  70.5805969
  77.6592970  66.2550116  71.9483376 111.4701271  36.3494897  75.5147266
 110.7190037  36.7720842  75.0982428 111.3037586  36.4363456  76.4533520
 109.9034691  38.3070779  82.6883507 110.3399754  38.3355856  83.5397530
 109.7631168  39.2260504  82.4602604  25.7635307  44.4937515  30.1515365
  24.8924875  44.1372442  30.3259301  25.5973363  45.3498220  29.7568703
   4.1377807  85.2610588  40.8008194   3.2009694  85.4299068  40.9013462
   4.4409615  85.0584698  41.6858435  80.3996849  71.6853714  86.0235119
  81.1523151  71.8157864  85.4466534  80.1378918  70.7768869  85.8739948
 107.1710205  99.9430943  32.6793933 106.8041134 100.0074291  31.7976499
 108.0558109  99.6029663  32.5464153  58.5183001  15.2254725   4.8311406
  58.7320614  16.1565959   4.8906869  59.2913008  14.8273897   4.4308516
  81.6978836  55.3916025  78.8520098  82.4604225  55.9701777  78.8475513
  81.6267776  55.0960684  79.7596645  67.5025225   6.5526927   2.4076968
  68.4525347   6.6660994   2.3785746  67.2503233   6.8667638   3.2760212
  11.3829589  76.8102503  73.6474943  11.8529689  77.3820639  74.2544127
  10.7279325  76.3715315  74.1903591  95.4215431  49.2496824  82.1373749
  94.7351074  48.6705637  81.8062305  95.1505184  50.1250219  81.8606853
  12.6771677  47.5048780  76.3268042  12.4814904  46.5842390  76.1525393
  12.0756423  47.9888535  75.7609701  47.1517038  15.5429280  27.6492524
  47.3736620  16.1415923  28.3623886  47.8464556  14.8846543  27.6641369
  98.3996773  52.8769732  68.4886694  98.8403225  53.1270409  69.3007851
  98.7273502  51.9977713  68.2993031  98.2917118  87.7287483  72.8056574
  98.8293457  87.6769352  72.0154095  97.7679729  86.9276619  72.7919769
  73.2907772  91.3534546  43.7721109  73.3421755  92.2715092  44.0381479
  73.9366388  90.9085464  44.3208838 108.9897442  87.4796772  32.2722816
 109.2663193  87.6879215  31.3798857 108.7959671  88.3296776  32.6674819
  85.7200050  91.5426826  75.8889246  86.0676289  92.2333336  75.3246593
  85.8321571  90.7392120  75.3808880  68.6070728  31.9372439  11.5641046
  67.8281689  32.3976254  11.2517142  68.3463669  31.5718436  12.4095309
  56.7620897  86.0523129  63.5887289  55.9040022  86.0662270  63.1647921
  57.3453188  86.4820576  62.9631138  69.9684572  78.2444191  91.2431526
  69.0961170  77.8774500  91.0996819  70.2725410  78.4881163  90.3688622
 106.4561272  92.3974228  70.4078722 107.1961975  92.9863167  70.2604532
 105.6890202  92.9066658  70.1462555  54.0919590  10.7336092  29.5738339
  54.6493959  10.8004642  30.3490949  54.3077946  11.5091968  29.0560389
 112.0607185  93.4562206  21.9720387 111.9545078  93.2106209  21.0530019
 112.4856758  92.6989555  22.3747587  74.4988441  67.3193407  91.2648296
  74.6195984  66.4076662  90.9993172  73.7843609  67.2908449  91.9011784
 109.8343277  50.9360027  57.0335484 110.7338142  51.1195230  56.7624855
 109.3477440  50.8593988  56.2128162  76.1598778  99.3281937  77.8428793
  76.7063665  99.6242905  78.5708237  76.0722637  98.3845711  77.9775381
 103.8744545  74.4902372  90.4437923 103.2229424  74.0609169  89.8893070
 104.1837215  73.7988997  91.0291481  94.5212555  84.4962406  85.8175087
  95.4102612  84.8488808  85.8568859  94.6201515  83.5715103  86.0440445
  88.4842587  58.7060785  90.1392651  88.7265110  59.5700073  89.8058319
  89.1862011  58.4792995  90.7492542  54.2055988  33.5229445  16.1906767
  54.8003817  32.8686523  16.5572381  53.6581612  33.0322623  15.5776739
  38.1487346  22.9799080  16.3935268  38.8810825  23.4819913  16.7510307
  37.3992181  23.2327557  16.9325316  97.9765129  51.2519360  80.0792217
  98.5066605  51.0335302  80.8456898  98.1640244  50.5540276  79.4515324
  57.8980446  54.1905355  10.6322491  58.7042379  54.4314432  11.0885906
  57.4544621  55.0237846  10.4736352  53.9371061  91.9020081  87.3051262
  54.2405605  92.1011639  86.4194202  53.4917164  92.6996803  87.5907421
  91.9493484  92.1942902  86.7128754  92.0568466  91.3814640  86.2189293
  92.5517750  92.8098202  86.2952232  97.5217628  78.7878656  76.4009714
  97.7233791  78.7206507  75.4676628  97.0548534  77.9773378  76.6041183
  87.0552635  23.2298565   9.7910905  86.1868382  23.0563545  10.1543713
  87.2920704  22.4199176   9.3392557  19.7655046  28.4447026  33.0276275
  20.7178402  28.5300612  32.9828572  19.6007073  27.5149965  32.8704095
  56.7476463  54.7207928   3.5319123  56.0040712  55.1608133   3.1199500
  56.3912773  53.8885450   3.8427150  63.1539392  80.3276920  89.2168522
  63.1706333  81.0515690  88.5907936  64.0548182  80.2646065  89.5341396
  81.3174489  22.7592819   0.7091602  80.8335504  22.7171390  -0.1156345
  80.7085320  23.1693475   1.3234123  79.9889231  55.5046463  87.1273422
  80.5521488  54.9146032  86.6264820  79.4903135  55.9808540  86.4633751
  43.3831215   2.1430455  14.5797539  43.3749199   1.5333712  15.3176308
  42.7209568   2.7974224  14.8023748  94.6218586  69.5770121  32.8870940
  94.5576477  70.5299997  32.8244662  95.5471802  69.3885040  32.7306843
  91.2510872  54.0821934  69.6029234  90.6082535  54.7826099  69.7143078
  91.4156246  54.0557766  68.6603355  91.8597889  61.8157053  83.5395718
  91.0116673  61.7758799  83.0976009  92.4976730  61.8780136  82.8286171
  56.0621691  37.6180220   1.2873788  55.5176210  38.3996844   1.3806508
  55.4458666  36.9228911   1.0567415 108.2049561  60.3851461  85.9192562
 108.8512516  60.4434586  86.6229153 107.5853157  59.7194242  86.2177372
  37.4864531   2.1250641  17.5422943  37.1971416   2.9974705  17.8095734
  38.1374621   2.2873245  16.8595850  36.8871617  23.1464624  29.8121619
  35.9638357  23.2899570  29.6045351  37.3401737  23.8910127  29.4163632
  94.1161919  89.0420818  76.2052059  93.6162090  88.3093929  75.8454609
  94.5271301  89.4490433  75.4424858  65.0318050  23.1206179  19.5829022
  64.7443247  23.8424253  19.0238142  65.0827932  23.5021353  20.4593015
  80.2743244  85.9826565  75.3332615  80.5325031  86.8616199  75.0557804
  80.8575344  85.3977871  74.8495007  53.2963610  21.1870885   2.5271147
  52.8446960  21.8472505   3.0528674  54.0545654  21.6462684   2.1658462
  71.7372990  65.4767847  80.4184532  70.8470249  65.7610846  80.2115345
  72.3005056  66.1016607  79.9617672 107.2384071  69.8816633  84.5081043
 106.9869328  69.9296570  85.4304314 107.5424099  68.9818382  84.3892384
  46.5524864   8.1261653  27.6557088  46.8853617   8.8239610  28.2200742
  45.6002951   8.1999594  27.7198672  60.6189442  30.7056904  80.8449841
  60.2725124  29.8486662  81.0934448  60.8159113  31.1349463  81.6775513
  68.4260035  69.3198538  83.8801861  67.6713371  68.8462496  83.5303116
  68.0508614  70.1001596  84.2883778  96.0328865  59.8959923  64.3951845
  95.8141327  58.9658546  64.4519377  95.1933670  60.3457499  64.4908333
  15.6997025   6.3771242   6.9387203  15.4554510   7.1118569   6.3759226
  14.9061394   5.8449191   6.9956893   2.4170429  56.6051626  62.4405575
   1.7709526  56.9441223  63.0601597   1.8958826  56.1773872  61.7611217
  92.7206612 102.2712898  82.9635048  92.2327232 102.1834755  82.1447086
  93.6296272 102.0949745  82.7207375 104.8022270  62.9639244  74.7262812
 105.3853703  63.6252832  75.0988102 104.7392178  63.1948662  73.7994957
  47.7796364  45.0726414  12.3469090  48.5552311  44.6850395  11.9413865
  47.2380018  45.3523970  11.6089380  91.2483120  84.7247982  78.3312464
  90.7334709  84.4676304  79.0961218  92.1288681  84.3970203  78.5140133
  68.4977770  82.4697018  86.6527271  68.4561348  83.3926773  86.9029427
  68.8036394  82.0213604  87.4411869   6.3226902  12.4650455  69.4131613
   6.9629806  12.8611732  68.8221073   6.0911757  11.6359401  68.9945698
  88.0584908  14.5485711   4.0443537  88.5109329  15.3085935   3.6784369
  88.4059334  13.8038087   3.5535973  44.0071154  22.0004582   0.5974875
  43.6518097  21.1140943   0.5315536  44.5249653  21.9916487   1.4024626
  72.5273848  13.3860230   8.3478397  71.9271755  13.0488253   7.6827991
  73.1421280  13.9339805   7.8599221  19.9643481  97.4196434  18.3635819
  19.0162396  97.3034000  18.4253144  20.0891161  98.3686161  18.3528876
   7.7317864  85.4680252  69.9855471   8.2203078  84.8464012  70.5251455
   7.6011598  86.2272835  70.5536032  77.5344229  39.0186906   5.2332473
  78.4745550  39.1267991   5.0893879  77.1687508  39.8921990   5.0936258
  61.6518259  85.8259869  86.5579414  61.3041067  85.3186226  87.2913647
  60.8774805  86.1969852  86.1348724  40.6608915  16.8954861   1.3020472
  40.9936666  17.5492692   1.9169153  41.2284040  16.1354017   1.4302315
  27.7334785  69.8296547   4.5465797  28.3026886  70.5922127   4.6501973
  28.3225775  69.1263914   4.2734241  21.8211832   0.1623029   2.6959562
  22.3554792   0.4234571   1.9459179  22.4438848   0.0870866   3.4190190
  78.2779646  53.9725399  90.8694077  79.1175985  53.8867235  90.4178810
  78.1750393  53.1469107  91.3426781  70.5196381  42.2013092   8.9408022
  69.7441959  42.7458954   9.0762430  70.2240133  41.5053558   8.3538717
  72.2146749  71.2324429  66.3413715  72.1143866  72.1213675  66.6819429
  71.5316629  70.7281256  66.7834044  80.8462334  72.7050495  53.2514191
  81.3844967  72.6412392  52.4624729  79.9526119  72.8075171  52.9240465
  17.7649379  30.9902000  36.3594270  18.2530487  31.7885160  36.5610933
  16.9101965  31.3010097  36.0610223  31.0438371  37.8004050  23.7344480
  30.4148102  37.5106788  23.0736804  30.5369616  38.3680463  24.3150425
  87.2176075  75.7917881  63.5605335  86.6757107  76.2737465  64.1852713
  86.8165493  74.9238348  63.5152912  94.6942616  42.2089815  77.3005438
  94.8882675  43.1239843  77.0971584  95.0331974  42.0835781  78.1868982
  90.3235912  49.1073275  67.7803707  91.2764072  49.0837622  67.6918983
  90.1667309  49.6826029  68.5291576 108.1777096  97.8273773  75.6127739
 108.6629677  97.1533489  75.1369095 107.3729420  97.3908806  75.8921671
  86.8915844  93.3140850  68.7823868  86.1399555  92.8402996  69.1384888
  86.7002869  93.3994484  67.8483868  51.3106775   0.2849197   1.2332581
  52.1962690   0.0003237   1.0075040  50.9500408   0.6195868   0.4121795
  62.7503872  89.8484421  85.6868172  62.6075602  90.3490734  84.8835754
  63.5336637  90.2377510  86.0756016  57.2204924  47.3974085   5.4449224
  57.4973154  46.4852571   5.5319870  57.6277208  47.8432322   6.1876452
  98.6190414  80.2300167  87.0301723  98.7720013  79.6724749  86.2672997
  98.0331135  80.9165573  86.7114449  13.2780218  74.6167421  75.7819986
  13.5211468  74.5712709  76.7066908  13.9564550  75.1610994  75.3824568
  59.1753149  28.2630038  10.3337359  58.7199926  27.5767541   9.8459119
  60.0422287  27.8971052  10.5092716  61.5099955 101.8571949  81.4190197
  61.1954880 101.1490154  80.8570671  62.4336147 101.6537094  81.5665150
 101.8730831  48.0882931  44.1805744 101.0518169  48.1508732  43.6928797
 102.4287987  48.7696981  43.8022900  51.0241890   9.3533152  18.2870317
  51.8177176   9.1102374  17.8101051  51.1272144  10.2886498  18.4624338
  80.9578800  54.2460155  84.9136543  81.3440609  53.6302185  84.2908478
  80.5419731  54.9116373  84.3657494  85.8559608  84.0878296  43.2629251
  86.5915585  83.7725353  43.7880039  85.1964760  83.3979034  43.3359051
  98.9423561 100.1861000  15.3730035  99.0005779  99.2657948  15.6296539
  98.6229706 100.1634502  14.4709420  25.1612926  15.9192169  11.9539142
  24.2821217  15.8117425  12.3168719  25.1494884  15.4106426  11.1430848
  78.0278683  47.5007153  57.7902937  77.3040724  47.0758009  57.3300743
  77.8413534  48.4367466  57.7175570  65.4967451  40.5338144   3.0181107
  65.7410240  40.1049185   3.8382384  65.5051756  39.8308873   2.3684540
  90.7810497  24.8660517  20.4496074  91.2486839  25.5366039  19.9517071
  89.9117565  24.8338151  20.0501943  48.5438824  21.8051791  16.6607642
  48.9695787  21.5463781  15.8434308  47.8095865  21.1978221  16.7511272
  73.5546923  94.6742249  69.5590162  73.4338474  93.7248135  69.5746422
  73.5577774  94.8999977  68.6288261  37.3311591  20.4119873   1.7736617
  36.5612054  20.9669876   1.8976642  37.7814078  20.4348755   2.6180464
  87.9537487   1.6602848  88.8137245  87.0849514   1.9868506  89.0477943
  88.2938385   2.3065543  88.1949329  96.0344696  87.2170067  81.5153790
  96.0186863  87.1331978  80.5619812  95.1124096  87.2058105  81.7720985
 105.5702305  75.5402708  79.5202875 106.4900494  75.7371473  79.3430853
 105.2320957  75.2073240  78.6889935  13.4783876  83.0959415  52.6073360
  12.5714183  83.3451366  52.4297428  13.8207781  83.8075733  53.1482458
  99.8806381  73.6265230  71.5162277  99.2030621  73.0126047  71.2329721
 100.1543713  73.3020210  72.3741293   6.0134077  83.8465786   3.4246531
   5.2756822  83.3208752   3.1154174   6.1609977  84.4856548   2.7274945
   3.0442360  74.2158985  71.9508696   3.8015002  74.6829653  71.5978384
   3.4025830  73.6773062  72.6563787  86.0761642  44.5131969  56.9858265
  85.6079865  44.0843439  56.2694979  85.4037094  44.6777678  57.6468515
  54.3460131  83.0605984  71.6432095  53.8154840  83.8428688  71.7942619
  55.1137209  83.3797646  71.1688805  93.2320404  69.7637367  85.2125168
  93.0852699  69.4258976  84.3290329  93.6833477  70.5971336  85.0783539
  84.2920971  85.1048851  79.3668365  83.6547947  85.5709839  78.8257027
  83.9809704  84.1997147  79.3772650  43.0004597  31.7313170   3.9912948
  42.8338861  32.3637986   4.6901894  42.7902460  30.8827353   4.3811044
  32.6994491   5.5446273  19.8087597  31.8243361   5.1633662  19.7376955
  32.7258301   6.2130177  19.1240776  41.9927931  22.2162414  31.4372849
  41.1950970  22.5849366  31.8167353  42.6725101  22.3967576  32.0866156
 104.0533829  97.3987770   1.0815220 104.2480469  96.4631462   1.1356851
 104.8158646  97.8251076   1.4727934  97.8558636  65.5262613  73.8087463
  98.0163574  66.0826206  74.5709419  96.9129753  65.5928469  73.6578941
  71.0833025  75.5646563  87.8562832  71.4580965  74.6999598  87.6887703
  71.8372488  76.1160564  88.0654716  66.4549732  84.3311405  68.6017561
  65.5752325  84.1684341  68.2614470  66.3171721  84.8979855  69.3606567
  74.9459743  58.2591581  86.0937881  75.6150150  57.7800083  85.6048775
  75.3256798  59.1269016  86.2318897  30.0210547  23.9800143  13.2116890
  29.8560309  23.4600329  12.4251652  29.3953800  23.6466599  13.8548350
  71.9253016  61.2081814   3.9544037  70.9901524  61.0137177   3.8918844
  71.9622517  62.1398735   4.1707748  76.5933895  92.5050259  91.4990520
  76.2977839  91.8788433  90.8381844  76.2555933  93.3484745  91.1978722
 112.2310599  17.0186424  89.1341782 111.6057651  16.6627538  89.7655106
 112.7085000  17.6895964  89.6221352  71.2120771 101.4474678  84.9660110
  71.3546658 101.5327168  85.9086895  72.0250654 101.7628956  84.5713139
   5.0523090   2.8708103  84.5931053   5.2851546   1.9887924  84.3031788
   4.7098631   3.2983610  83.8081455  81.0392570  82.8009701  81.7494488
  80.5375862  82.1018028  82.1686172  80.4546452  83.5587120  81.7667198
  64.3947077  99.8913956  90.9010410  64.4927597  99.4299412  91.7339134
  64.3531513  99.1954994  90.2451134  53.1825113   7.8199512  25.3614831
  53.9018774   7.8634679  25.9914446  53.3834553   7.0560271  24.8208618
  79.6589136  62.4773693  20.2041841  79.7278452  62.6527548  21.1426497
  80.1363182  63.1964779  19.7904301 111.9043643  73.8577080  69.5485926
 111.3024588  73.6105967  70.2506447 112.7479078  73.4935951  69.8170853
   1.3469255 102.7160740  48.6362648   0.8475269 103.3317280  49.1727448
   1.0655564 102.8969669  47.7394152   4.0610033 103.7245369  78.4018564
   3.5173333 104.2981625  77.8618383   4.6104935 104.3225861  78.9084482
   8.7157190  11.4056969  83.2530975   8.7828368  11.0060465  82.3859119
   9.6227193  11.5650201  83.5142422   1.5042280  72.0445871  60.9490633
   1.2036042  71.1404467  61.0406446   1.3412848  72.2592974  60.0305939
  25.4969859  87.7947712  48.7196302  26.0424614  87.0094490  48.7637568
  25.6704426  88.1583977  47.8513432  31.1429119  46.9310665  76.3659573
  31.1569476  47.6820374  75.7725906  30.2362156  46.6250753  76.3436174
 107.6919746  89.1371632  81.1433315 107.8978348  89.2682171  82.0689011
 106.9166565  88.5758209  81.1475563  85.8463192  54.1027546  85.4639149
  86.2741470  54.9507570  85.5825901  84.9188232  54.2781019  85.6228161
   4.2125514  67.8699207  75.2788305   3.9216441  67.2698832  74.5921278
   4.2741141  67.3246098  76.0630989   1.8261034  82.1038628  55.1101255
   1.1428530  82.6839066  55.4462147   1.4646036  81.7548370  54.2954254
  42.0147848  11.5337908  35.2254295  41.3939047  11.8779433  34.5833230
  41.7050266  11.8744862  36.0645986  70.2762222  95.6960106  52.6515770
  70.1788759  96.5894413  52.3221350  70.7403755  95.7964325  53.4826660
  57.7544260  27.9713869   6.0842115  57.8972435  27.0614219   6.3445914
  57.3089218  27.9115939   5.2391177  67.9505873  74.8637724  91.1391449
  68.1714249  75.3615761  90.3519630  68.6711121  74.2416143  91.2390804
  76.8538284  17.2447991  49.4825888  76.9315004  17.3920667  48.5399818
  76.6062403  18.0980873  49.8387241  37.6842213   5.9863639   1.6125762
  38.6255383   5.8783275   1.7485283  37.4738264   5.3807968   0.9017640
  29.3203664   5.7771128  86.5210915  28.6427474   6.2096274  86.0014820
  28.9054370   4.9734569  86.8344688  81.1306572  35.9756708  81.0498142
  81.2016964  36.8946075  80.7914639  81.5486717  35.9356952  81.9099808
  60.9067869  29.2306423  21.7120361  61.8171024  29.0260506  21.9258094
  60.7751513  30.1170516  22.0484638   1.2693936  98.8274860  50.9039640
   1.1992043  98.9886570  49.9630451   1.8614414  99.5098495  51.2203360
   0.3320509  56.3512230  80.3883839   0.5097891  57.1319342  80.9129143
   1.0363283  56.3325787  79.7404099  72.2593355  20.7257080  89.1625404
  72.3132896  19.9087691  88.6666203  72.0416403  20.4512215  90.0533199
  42.8042936   4.9940452  63.8685799  42.5449085   4.1218019  64.1654682
  42.5206137   5.5800724  64.5702410  99.3398380  90.8592415  79.7802973
  98.5737133  90.4304981  79.3988991 100.0195026  90.1852608  79.7738028
  57.1181870  66.9630909  69.7094202  56.4386940  67.4566126  69.2501211
  57.7470827  67.6271820  69.9917412  27.1812439  51.3197422   1.3221806
  26.6667438  50.6195593   0.9205987  26.7561889  51.4758253   2.1655059
  33.1592512  53.1032419  18.2888675  33.3012247  53.6919022  19.0301871
  32.3453045  52.6454592  18.4990025  66.0837650  39.0995169  15.9162259
  65.1637554  39.3194962  15.7698381  66.1790085  39.0894389  16.8686223
  15.8027780   0.2480051  55.4676580  15.3753817   1.1035213  55.5083513
  16.3156438   0.1978759  56.2743139  71.5569878  83.2583904  74.5003510
  71.9814777  82.7011395  73.8480377  70.8195734  82.7369213  74.8174095
  71.3944101  95.3483677  89.8124218  71.6080809  95.6035137  88.9149380
  70.7767487  94.6236706  89.7147942  96.2473488  38.4270310  17.2859716
  95.7085991  38.7509513  16.5641296  97.1317196  38.7292576  17.0791423
  47.7221584  56.6199017   8.8249499  48.3571291  56.3460302   8.1631041
  47.6103687  57.5587463   8.6756063  71.8071604  24.9802494   5.4767025
  71.3537121  24.3324924   6.0161716  71.7503500  25.7927394   5.9795570
  48.4260893  50.0627327  13.9515507  48.5878515  49.7944736  13.0470610
  47.4968624  49.8814344  14.0926075  33.2278514  45.4356003   2.7973449
  32.8624988  44.9865770   2.0350297  32.6451111  45.1966333   3.5181358
  46.5424776  68.4745789   6.3972062  46.0016680  68.2583427   5.6375998
  47.0213842  67.6679802   6.5876746  92.6053619  18.4033453  26.9232130
  93.3849621  18.7648344  27.3448610  92.3944283  17.6241148  27.4375463
  91.5313244  92.1657085  68.5110855  91.4538765  92.8841496  67.8833342
  92.3075294  92.3818111  69.0278530  50.8936644  44.1525936   6.4678884
  50.9522104  45.0601768   6.1694086  50.2081108  43.7652254   5.9236526
  20.1087284  13.1698895  82.2006035  20.7067752  13.9168859  82.1767426
  20.2527046  12.7751791  83.0606651  68.3870459  85.4693127  83.5645676
  68.1408834  86.1787128  82.9709530  68.5405207  84.7189522  82.9904175
  31.7313290  50.9077692  22.1329784  31.3168573  51.5837574  22.6691532
  31.3066912  50.0936890  22.4035025  10.1439869  50.4457664  61.9466686
  10.0895977  50.8547449  61.0829496   9.7277784  49.5912266  61.8336868
  53.3482981  12.3311710  35.7944441  52.9033756  11.9154668  35.0558877
  53.7181187  13.1351161  35.4295611  69.6346951 100.9691429  80.2373219
  69.5396519 100.4758835  81.0521126  70.2954054 100.4863358  79.7407341
  63.1789637  10.5296838   5.8695036  63.0740738   9.6266937   5.5697721
  64.1142368  10.6132805   6.0552555  23.6615825  27.3854184  54.5777321
  24.4805861  27.4113345  54.0829659  22.9817390  27.5502181  53.9243698
  43.8205671  46.0058165   3.7890983  43.4178400  46.4305019   3.0316788
  43.1728840  46.0979795   4.4878426  80.5981350  86.6413975  47.7620363
  80.8341885  87.1691132  46.9991302  80.5373192  87.2717762  48.4797764
  49.7545195  39.9844551   9.1491753  49.2857695  40.4509735   8.4571737
  50.5696964  40.4741335   9.2584133  81.7673874   0.9669980  19.3378901
  81.4051056   0.1897440  18.9126158  81.0148144   1.5456475  19.4605112
  76.4496565  28.6343217  22.4098897  77.3277235  28.3288956  22.1819639
  75.9523249  28.5631943  21.5951324 100.6337833  73.7887096  83.6766815
 100.2551174  74.4588947  84.2456245 101.5707111  73.8106823  83.8714218
 102.9422283  76.6230202  73.4710169 102.5833416  76.4393187  72.6028633
 103.1744766  75.7629347  73.8210773  67.6930285  69.6197701  77.8244448
  67.6860380  70.1676083  77.0395517  67.3761749  70.1949835  78.5208416
  19.3545699  95.5358982  31.1428547  19.4904959  94.8085690  30.5356073
  19.9623835  95.3641987  31.8620992   6.2667590  58.9697742  82.2682095
   6.3961607  58.4800053  83.0803776   7.0423353  58.7721491  81.7431831
 108.1723785 100.6493473  74.8591042 108.0863380  99.7455788  75.1624727
 108.1383705 101.1746216  75.6585789  92.3243713 102.3865509  75.6830215
  92.3611736 102.2292995  74.7395420  92.5760174 101.5504169  76.0751867
  30.5676270   5.3274393  78.2457495  30.4400802   5.9456289  77.5261593
  30.8450818   4.5168877  77.8188324  64.4437122  73.8265467  16.0343611
  63.8824511  73.3924866  15.3918636  64.9464273  73.1157684  16.4322293
  92.8692341  58.1855297  88.7540913  93.6244678  58.0832577  88.1749535
  93.2315254  58.1058264  89.6364880  91.2574196  39.2165041   3.2973096
  91.1309814  38.3177829   3.6015204  90.4312992  39.4432998   2.8703362
  78.5713387  79.8271370  68.6759472  77.7493143  80.0398350  68.2340527
  79.2342091  80.3317165  68.2045269 106.3536549   5.0588542  43.1356287
 106.1447430   5.9772742  42.9650688 107.1397686   4.8915035  42.6157665
  75.8246708  96.7381191  78.0210066  74.9832916  96.3006210  77.8909779
  76.1316967  96.4194202  78.8697720  38.1144762  43.7195492  34.1832471
  37.6267624  44.5063448  33.9396834  38.3027768  43.2870483  33.3503509
  83.3013439  96.6439247  69.4154501  83.7166882  95.9412956  69.9154854
  82.5418282  96.8952560  69.9409914  55.6752110  27.8610420  23.7139606
  56.4027357  27.2519875  23.5874987  55.9472990  28.6572385  23.2575965
  17.7284896  24.2650485  76.5522957  18.1498682  23.7478137  77.2386932
  17.6280653  23.6558270  75.8208609  39.2485929  51.3627386  17.3099148
  40.0622129  51.6696167  17.7100205  39.4931006  51.1378241  16.4122152
 111.1292744  27.1200585   6.0027128 110.6066704  27.6891637   6.5677184
 110.5336761  26.8724012   5.2954948  69.8772526  15.4107332  10.1513159
  69.5621443  16.2945139  10.3407025  70.7536459  15.3815508  10.5351365
  52.2613144  19.9245822  21.8914151  51.7314053  20.2908349  21.1833978
  52.6093769  20.6891561  22.3502278  77.9526281  46.0489511   9.9490362
  77.0749426  45.6707144   9.8957443  78.5393333  45.2926731   9.9559581
  61.0333633  21.7377687  12.7868533  60.4769182  22.0632768  12.0792890
  60.4262018  21.3136339  13.3932340  62.4361706  42.7133512  24.1721034
  62.2479343  43.4396410  24.7664905  62.5786877  41.9627285  24.7487235
  54.0238476  27.8713989   1.7665754  53.6047173  28.1367373   2.5852075
  54.2889977  28.6942077   1.3555829  18.5520673  55.7747841  88.7299347
  17.9300690  56.3441086  88.2769299  18.0036342  55.1794910  89.2408943
  90.7178307  44.3536997  24.7754860  89.9941826  44.5885706  25.3563499
  91.1399078  45.1877308  24.5693898  73.0130577  47.9078960  27.9160523
  73.3390617  48.7607384  27.6286173  72.3926783  47.6468372  27.2354579
  77.0965624  84.5467186  44.9008226  77.0636749  85.2741528  44.2795372
  76.1981344  84.2179871  44.9324942  64.7574613  47.8944032   0.0764355
  65.1612470  47.3851030   0.7791409  65.2856633  47.6963441  -0.6968799
  82.2550297  44.4443655  79.0121555  81.3474369  44.1412067  78.9875221
  82.6612663  44.0470076  78.2418919  86.1254311  92.3682117  55.4320383
  86.2155437  93.2295704  55.8396721  86.6660976  92.4185371  54.6437597
  18.2479763   7.7162635  66.4371872  18.6113322   6.8633634  66.6754436
  18.2097030   8.1993520  67.2626543  22.5169253  45.6946945   7.8933311
  22.9554105  46.5448809   7.8595060  21.6348958  45.8924675   8.2081974
  34.6955419  69.9113607   9.9559110  34.7374392  70.8640862   9.8734862
  33.7826300  69.7302198  10.1795340  95.9955120  60.1837540  30.4707050
  96.3733864  59.5389366  31.0687423  95.7059383  59.6702194  29.7166061
  92.0450211  88.4690952  60.5054283  92.4992085  89.2132378  60.1101971
  92.2989845  88.4959698  61.4279318  58.5339499  50.2469444   5.8384359
  59.2048359  50.7852650   5.4184955  59.0190411  49.6950912   6.4519292
  69.5290565  85.7495594  72.7406025  69.4927931  85.2451229  73.5532951
  69.3987179  86.6569901  73.0159235 105.4381084  70.5126619  80.3613949
 106.1027050  69.8975468  80.6715012 105.9242439  71.3152075  80.1721287
  48.2831621 106.2346268   1.2575114  47.4386120 106.5897274   1.5347694
  48.0647659 105.4129887   0.8176908  65.3601551  94.3887997  63.5499144
  65.0543356  94.0771675  64.4017315  65.4889917  93.5919189  63.0354929
  22.9498625   2.9208770  64.7459698  23.7185812   2.7519691  64.2011976
  22.7227807   2.0658526  65.1114798  90.6893635  83.7088680  83.9381027
  89.7890854  83.6198425  84.2508507  90.8751106  82.8768063  83.5028934
  58.9686394  71.3938570  85.1848793  58.4708309  70.5879259  85.3223419
  58.4130144  72.0834780  85.5480957  24.4193864  93.5004711  73.6283255
  23.9767957  93.3495522  74.4635296  24.9386954  92.7090836  73.4860134
  32.6301861  29.8150253  30.3481627  32.8973293  29.0215993  29.8841166
  33.4288859  30.3394747  30.4053020  39.1533947  64.8614502  24.7121716
  39.7950196  65.5714369  24.7338676  39.6558475  64.0776730  24.9345875
  76.8901443  24.3495440  12.0942247  77.2366333  24.5431328  12.9652596
  77.0663738  25.1407123  11.5850794  93.5414028  87.0184422  82.2075748
  93.1838417  86.2755013  82.6938152  92.8256035  87.2980118  81.6368771
  64.8846292  54.0257072   8.4094656  64.5898247  54.5568609   9.1491944
  64.8271704  54.6124268   7.6553518  91.9265747  99.5744514  78.5608101
  92.4258709 100.2832890  78.9663744  92.4755287  99.2801952  77.8339720
  27.0247626  21.7793870   0.7892492  26.7149425  22.6849866   0.8008011
  27.8177786  21.7906952   1.3251892  56.3134003  42.0231295   6.5194768
  56.4332962  41.0843277   6.6626656  55.4865646  42.0888710   6.0417217
  93.2930470 100.1077843  54.5975304  93.8912487  99.6634293  55.1983166
  93.7364769 100.9279919  54.3810511   7.8838801  70.5267811  44.6238947
   7.4555093  71.3698721  44.7719812   7.5095665  69.9480057  45.2880812
  50.4718542  10.1651073  14.5209980  49.6399403   9.9616224  14.9484813
  50.9650183   9.3454027  14.5542443  69.3274164  84.8809528  80.3118706
  68.9879751  85.6961441  80.6812859  69.2053223  84.2340088  81.0066986
  84.1728973 100.2095604  49.2994690  83.5487080 100.8713818  49.5971251
  83.7400341  99.7890663  48.5564709  63.2285738  43.2926035   4.7329649
  62.5683594  43.8833284   4.3704873  62.8247881  42.4258804   4.6884003
  37.3321128  29.0546584  15.0251818  36.5790510  28.4989762  15.2260566
  38.0889344  28.5481524  15.3199828   1.4875588  79.9046715  91.9765825
   1.1898837  79.7044642  91.0891494   1.9596324  80.7328232  91.8897410
  46.6435719  32.0798683  15.2576745  46.3022661  31.1873102  15.3132129
  46.6298342  32.3981452  16.1603057  54.8906660  28.8446045   5.0765622
  55.3553820  29.6243668   4.7728425  55.4622984  28.4712195   5.7474244
  76.7811871  42.3381376   1.7285487  76.1061954  41.7586327   2.0818125
  76.4153004  42.6569748   0.9035017  52.4659252  88.8958645  67.4001265
  51.7086029  88.4643841  67.0045042  52.0963430  89.4340420  68.1001329
  83.7209511  90.1294518  57.9390907  84.3727684  89.9452496  57.2627544
  84.1107941  90.8291340  58.4632206 102.1183491  32.1933842  15.0721049
 102.2424698  32.5783181  14.2045498 102.8946114  32.4588799  15.5652261
  29.7411919  59.5468760   9.6588373  30.4331541  59.8557186   9.0739989
  28.9612556  59.5042896   9.1055584  86.2645721  66.1639166  90.1426220
  85.7407665  66.7531013  90.6855011  85.8034611  65.3261566  90.1846218
 109.3981743 105.6241703  75.1449966 109.4654083 105.5386829  74.1939974
 109.5801640 104.7453880  75.4779339  47.9734421  65.8198452   3.4017402
  48.5443211  66.1632442   2.7144223  47.5002384  66.5864229   3.7252626
  54.1828728  76.6068316  81.8109322  55.1000071  76.6087532  82.0849705
  53.6884689  76.6643190  82.6285458   8.0056614  89.8568630  81.7102528
   7.8042328  89.2126369  81.0315514   8.2781863  89.3334961  82.4639416
  25.2749133  79.2393637  70.5403709  25.6842089  80.0706100  70.7806730
  25.8499146  78.8749695  69.8674488  81.2671947  81.6424084  73.8426971
  81.8859386  81.6727352  73.1129885  81.7809391  81.3098049  74.5786762
  78.5191870  66.3585234  81.6473866  78.6780977  67.0583487  81.0139561
  79.3729115  66.2025547  82.0511818  71.3243484  10.1422942  14.6568048
  70.7290697   9.7713435  14.0054429  70.7494974  10.5783582  15.2857924
  13.6115301  40.5277014  80.2627087  14.4727767  40.3024149  79.9109459
  13.1687558  40.9768772  79.5426893  33.6672640   0.3895122  83.9529896
  32.8662086   0.6820840  83.5183048  33.3688307  -0.2491065  84.6005440
  74.9493742  25.3131151   1.7462730  75.2973413  25.6486106   2.5724667
  75.5164766  25.6934762   1.0754856  21.5205717  23.0499291  41.2203932
  21.4319754  22.0978069  41.1774635  20.6231165  23.3701277  41.3113642
  80.2277470 104.9450016  67.3848057  79.6235752 105.4102421  67.9633904
  79.9848175 104.0236187  67.4757767 104.3280602  84.9482632  64.8423624
 104.9507618  85.6708527  64.9219656 103.7505722  85.2077389  64.1244364
  42.4060202  24.3572450  21.8633962  41.9119215  25.1380610  22.1132398
  42.7494431  24.0166426  22.6893997  26.9145870  12.4538982  65.9050131
  26.8849826  12.8938472  66.7546034  27.7447581  11.9774389  65.9108210
  71.4583874  22.5580049   7.2335809  70.6019115  22.2739911   7.5529832
  71.8680096  22.9795575   7.9890501  32.6124382  13.8790774  69.5310640
  32.7397728  14.5645773  70.1868916  32.4294519  13.0902815  70.0415039
  18.8218081  90.6503201  45.3018951  18.3791149  90.6810665  46.1500168
  18.7267363  89.7421265  45.0148821  43.0395412  16.6005290  11.5604198
  42.9939413  17.5083745  11.2604713  43.0010462  16.6614211  12.5149047
  67.2342825   1.9762591  10.4933918  67.8742552   2.0890559   9.7905797
  66.6135406   1.3330162  10.1511216  11.2691689  84.2844486  79.9327040
  10.9569776  85.0842381  80.3559113  11.8992758  83.9160633  80.5519772
   0.1911146  80.5260944  86.4954948  -0.4265993  80.4602814  85.7672501
   0.9705812  80.9287930  86.1127567  41.3670111  41.4260006  13.0933368
  41.3781071  41.5139580  14.0464222  42.1433592  40.9035397  12.8919697
  65.5954981  93.9684486  42.4215746  65.6851625  94.7997665  41.9556427
  66.3206577  93.9646244  43.0463600  76.7726660  54.8832464  82.3649311
  77.5137138  55.2207756  81.8617821  76.8876457  53.9330578  82.3525047
  77.9180717  95.7745075  73.7317944  78.6378574  95.3279591  74.1775894
  77.3168278  96.0205841  74.4347811  79.3345833  77.4825144  76.8060541
  79.6695185  76.6508913  76.4707136  78.4148550  77.4945974  76.5411282
  74.5163679  52.8268528   3.4720546  74.7597122  51.9095993   3.5971805
  75.3182793  53.2471609   3.1613919  66.8653393  67.1899557   0.3328686
  66.7240858  67.0590115   1.2704891  66.2770033  66.5629816  -0.0878403
  44.2009163  64.8573303   7.3682058  43.3504772  64.5333910   7.0714831
  44.5350552  65.3651237   6.6287965  78.7327862  88.3057308  61.8801594
  79.5422220  88.5971165  62.2998428  78.0540562  88.4569550  62.5379562
  14.5348966 100.7074642  74.8914766  13.6780965 100.9026432  74.5119667
  15.1061523 101.4016914  74.5629263  90.4637623  81.1647415  88.6062717
  90.6873322  81.6860008  89.3773270  89.5216942  81.0140705  88.6839485
   3.7673065  63.0455732  72.9172421   2.9003823  63.3325434  73.2041645
   3.6887297  62.9591799  71.9671917   2.7390712  84.4431114  87.4860382
   1.8410054  84.7634792  87.4019432   3.1717604  84.7292709  86.6815948
  63.8573980 102.3072529  63.8614893  64.3951941 101.6436577  64.2935276
  64.1254854 103.1327629  64.2650843  97.0871735  83.3516407  71.5902996
  97.8414440  82.8857136  71.9511652  97.3237514  83.5202885  70.6782532
  92.5700378  84.8288727  57.8928709  93.4034824  84.3712139  58.0030966
  91.9979668  84.1867828  57.4725246  51.1639643  31.1292791   6.5589964
  50.7234430  31.7610192   7.1273959  50.5617094  31.0066581   5.8251798
  80.2648258  20.7779813  13.4825003  79.9652243  20.3139114  14.2642367
  79.8734713  20.2966666  12.7535188  94.8197556  69.8588514  89.0109539
  95.0198460  70.4375887  88.2752514  94.4088650  69.0935564  88.6088085
  43.7025356  18.8393509   6.0913032  43.9275312  17.9270983   5.9085393
  43.6459875  19.2496097   5.2283299   2.2252989  83.5779190  78.3400202
   2.1073979  82.6301289  78.4034204   2.0365420  83.7820244  77.4240780
  86.9098473  28.9854622  28.3463192  87.4031067  29.7236300  28.7041402
  87.5270271  28.5460472  27.7613115  75.4718971 102.4991894  85.0022602
  74.6509075 102.4724770  84.5108414  76.0538435 103.0389118  84.4672108
  85.4032230  69.4919491  90.2234650  86.1522198  69.0124846  89.8694134
  85.7878113  70.1174021  90.8375835  51.6220236  38.2747817   3.9281079
  51.5312243  38.5858727   3.0274364  51.1756468  38.9366269   4.4562548
  64.9191332  69.5470047  21.6042495  64.0847635  69.1224623  21.4047003
  65.3719282  68.9279413  22.1769381  82.8879356  92.9026604  85.6771564
  82.3408127  92.2261524  85.2781200  82.2647667  93.5135174  86.0705280
  52.2089148  15.5492699  24.8376894  52.5683880  15.8029914  25.6877685
  52.9492474  15.1621687  24.3704700  89.0087509  83.0258179  73.9795589
  89.1674709  83.0048084  73.0358458  89.8531246  83.2691669  74.3590879
  91.7980385  81.1386395  79.3070173  91.5613270  81.6641712  78.5428095
  91.5351677  81.6733551  80.0561523  90.1554871  80.2080345  52.0150375
  91.0873604  80.0830364  52.1945763  90.1027012  81.0769653  51.6170311
  21.8206978  12.8102744  87.1905518  21.0084081  13.1692779  87.5476742
  22.4933243  13.0654645  87.8219700  31.2013125  31.6833520  81.0680294
  30.6539822  32.1659255  81.6875362  32.0939946  31.9663286  81.2662125
  95.7950687   1.0146786   2.7054283  95.2045345   1.3825046   2.0480058
  95.4492378   0.1382905   2.8744668  57.0857000  34.8420286  20.1190639
  56.7991495  35.3907442  20.8491540  57.5464630  35.4433417  19.5339572
  99.3961143  79.8493814  89.7518635  99.2967319  79.9615908  88.8064671
 100.2773380  79.4914103  89.8592377  20.1786876  25.8735585  61.4739180
  20.4058504  25.1792765  62.0924664  20.6529546  25.6463861  60.6741095
 105.3990078  80.9013271  69.0069818 106.0297012  81.3669968  68.4577942
 105.8686733  80.1213741  69.3024683 109.6804237  64.4487333  57.2718859
 110.5195045  64.2725897  57.6975060 109.2905140  65.1509619  57.7925396
  78.0702257  51.5487432  91.7991066  78.3595085  50.6643105  92.0234394
  77.5693321  51.4391088  90.9908295  77.4115086  14.4646394   9.1854936
  76.6790295  15.0147283   8.9078063  77.2934055  13.6467564   8.7024307
  77.0316267  85.5517483  73.2701778  76.2624598  85.0644970  72.9748726
  77.7661800  85.1367092  72.8180647  29.0254495  28.6354463   1.2256226
  29.7013900  28.3015458   1.8154129  29.4262025  28.5992353   0.3571114
  97.8017426  82.2050190  90.3714848  98.1034088  81.3504124  90.0634575
  98.1064892  82.2542858  91.2775326  15.9123659  24.3944716   4.5207134
  15.5598617  24.0900564   5.3569579  16.4843631  25.1256990   4.7538590
  34.4346762  27.4105430  79.8555136  34.7222614  27.1823835  80.7395172
  33.5341382  27.7149725  79.9677038   9.2469937  69.9300957  66.2324572
   9.2622113  68.9837694  66.0893869   8.9164746  70.2913904  65.4099846
 108.3146954  77.5462770  60.9471321 107.5290203  77.8940535  60.5252361
 109.0364838  78.0289268  60.5442619 102.5039577  80.8940697  71.7655516
 103.2648659  81.4690495  71.6840458 102.6848602  80.1708317  71.1651850
  88.6620522  78.8549662  76.8326092  88.2787704  79.1409588  76.0034323
  88.6845398  79.6457672  77.3714638  15.6011343  77.6594210  72.3121309
  16.3514507  78.2142544  72.5252342  15.0796449  78.1845856  71.7051029
   7.5351346  76.0328436  66.0999012   8.4043580  76.1255455  65.7099152
   7.6756120  76.1784220  67.0354748  31.8596244  16.5886617  78.3678055
  31.6576910  15.7171512  78.0273294  31.5707064  16.5623045  79.2799807
  42.1009016  22.9563689  11.2730002  42.7709723  23.5659838  11.5822041
  41.4703178  23.5081339  10.8102393  67.1355963  44.9871445  14.9673557
  67.0688200  45.5635214  14.2060649  66.7634869  44.1561604  14.6720004
  14.6564078   0.7274268  79.4963551  15.1565397   0.0882410  78.9888716
  15.1380277   0.8094130  80.3194904  61.6567898  11.8783629  90.2702522
  62.6080894  11.9844568  90.2731323  61.4833069  11.2930000  89.5330429
  22.6594114  85.0747967   4.6887770  23.0239034  84.7645950   3.8598272
  22.9251313  84.4148254   5.3291422 103.1866455  44.7715902  22.4159503
 103.1030655  45.6478262  22.7920628 102.3359585  44.6026421  22.0109558
  52.4499369  72.5528288   6.8144220  52.7027559  71.9243956   6.1381173
  52.5912476  73.4090900   6.4105868  31.4393997   2.1078077  59.2996836
  32.3726940   2.1786945  59.0992689  31.0851192   1.5592897  58.5997963
  97.8526974  99.7333050  68.8664389  97.2527313 100.4725170  68.9656258
  98.5095215  99.8645115  69.5502520  67.4116993  82.2112083  69.7702551
  66.8024254  81.9826031  70.4722214  67.0023632  82.9567909  69.3311834
  68.6555624  66.3165951  10.8484578  68.3543539  66.4445448  11.7479777
  68.1209564  65.5949974  10.5172133 109.6968460  96.0893536  73.7947941
 110.4654408  96.6537380  73.8781738 110.0016117  95.2265739  74.0757942
 103.5544872 100.9954643  58.3287382 104.2803669 101.6194248  58.3255529
 103.9451599 100.1750851  58.6297226  93.1034374  41.1098957  19.1100907
  92.5800133  41.4565754  19.8326349  93.2930279  40.2065468  19.3635654
  56.0078812  76.3703680   1.7763931  56.0541153  75.8587742   2.5840825
  56.8975496  76.7003965   1.6506632  46.3932943  27.5329065   7.0737672
  45.8440495  28.3007479   7.2318178  45.7951117  26.8820000   6.7067051
 111.0156250  80.9669209  91.5209007 111.0382843  81.5682697  90.7765198
 111.8637943  81.0835743  91.9489479  91.2774181  44.7942829   2.0348282
  91.6966438  45.4224491   1.4467031  90.3396034  44.9187279   1.8890741
  12.7220178   2.3338982  54.1893578  12.3177266   2.5563586  55.0279808
  12.0780456   1.7756289  53.7536192  70.7393456  86.5251350  89.7677803
  70.3812361  86.3095093  90.6288815  71.6835213  86.5910053  89.9106979
  60.9492970  43.8922501  28.5119510  60.7776785  43.2375765  29.1888380
  60.2441597  44.5316458  28.6128855 103.1994534  97.7863693  45.9552717
 102.9459476  97.7555084  45.0327682 102.5450897  97.2489357  46.4015961
 105.2026081 100.6260586  80.4877949 106.1581707 100.6798267  80.5031013
 104.9235630 101.4404488  80.0693035  90.8844471  92.4395847  91.0232735
  90.9926128  93.0963612  90.3353977  91.3716602  91.6788483  90.7068348
  52.9863071  53.4926701  19.9952304  53.9010572  53.2533932  20.1442504
  52.6303577  52.7689505  19.4797051  89.1421890  87.4921799  48.3416224
  88.2902336  87.0648098  48.4297752  89.0851212  87.9719448  47.5153065
  38.9270139   1.2781455  71.4129353  37.9887915   1.1906832  71.2446451
  39.1069341   2.2099334  71.2879086  34.9475336  47.3945379   3.9027327
  34.4283676  48.1128550   3.5411808  34.4762802  46.6033506   3.6416271
  90.4730129  85.9315395  89.5439434  91.0934639  85.2393150  89.3156719
  89.7434902  85.4718113  89.9594784  33.0778694   7.7440619  88.2718182
  33.5915327   7.7764046  87.4647617  33.7190866   7.8796983  88.9694405
  89.2668915  21.7036986  23.8215733  89.5976925  22.5480533  23.5152030
  89.0725899  21.8445253  24.7482061  85.9266281  73.7771463  90.7530117
  86.2019444  74.1634274  89.9216080  85.1624107  73.2461023  90.5289650
  22.1131444   9.4275922  55.7247305  22.4676919   9.6318460  54.8593950
  21.2908649   8.9716965  55.5451536  99.3315697  75.7528210  85.1073170
  98.9683247  76.6225386  84.9403381  99.6382713  75.7912445  86.0132313
 101.2765217  97.7795124  62.8038359 100.4053879  98.1713104  62.7417183
 101.8293953  98.3368111  62.2561216   3.0220935 102.8377056  62.8060579
   2.1202290 103.1583881  62.8000975   3.1957111 102.5941658  61.8967819
 102.9868984  10.7697976  51.2487745 102.3358917  11.3770497  50.8971119
 103.0483627  10.9956455  52.1769142  48.7768078  32.2690129  13.4543049
  48.0012703  32.0373654  13.9652956  48.8723469  31.5531325  12.8261161
  88.1420326   2.0005029  76.5239239  87.3624897   1.4845568  76.7296791
  88.5550213   2.1593624  77.3727083  93.7788486  67.1925354  83.3032799
  94.4630432  67.7536583  82.9382324  94.1809368  66.7967081  84.0765095
  76.1594152  74.8129702  85.1953888  76.4690161  75.7053375  85.0402737
  76.9379568  74.2669439  85.0860405  10.8870852  74.9678516  85.1298809
  11.7363310  75.0561523  84.6971893  11.0693252  74.4450951  85.9107399
  51.6492224  60.1264715   6.2168747  51.9767475  60.3871155   7.0777017
  50.7907534  60.5446386   6.1505628  51.7646265  98.1498337  55.9724808
  52.3364830  97.4659252  55.6239367  51.3398933  98.5234356  55.2003050
  65.7920218   9.3661547  86.1861801  66.5997839   9.7491926  85.8440781
  65.8532572   9.4849920  87.1339989   1.4044051  98.3153439  53.8227940
   0.6508272  97.7727127  54.0549707   1.7273179  97.9390717  53.0040312
   3.1450772  47.7805424   1.2400322   2.6611140  48.5485220   0.9363657
   3.7097579  48.1136370   1.9374669  92.3177242  48.3405256  62.5480509
  92.1586132  47.5966930  61.9669962  91.8846416  49.0776539  62.1175766
  42.5618553  92.9952526  21.9048786  43.2994795  92.4053478  21.7494750
  42.6247740  93.2178783  22.8337002  10.4055333  68.4666824  54.4892550
  10.1049435  69.3456697  54.2584610  10.6986237  68.5444736  55.3971529
  24.9953198   1.2556952  48.4628820  24.6670866   0.8417688  47.6646614
  24.8645401   0.5973176  49.1452789 110.8735943  79.5011187  67.0205784
 111.4698887  79.2348671  67.7204180 110.1995468  80.0166512  67.4634361
  25.9726048  87.5013638  71.3864088  26.4457488  86.7034721  71.6224957
  26.5961432  88.0030918  70.8613348  57.6770496   6.5689969  69.2817736
  56.9488811   7.1033245  68.9647627  58.1554365   6.3222641  68.4902573
   2.1073672  80.7633400  78.1699133   1.6815312  80.0390530  78.6285114
   1.7470549  80.7306004  77.2837210  45.0974607  14.7102666  52.9262161
  45.7062626  15.0308633  52.2607756  44.3026543  15.2265859  52.7923346
  45.9560823   2.3018704  62.8908062  45.2828598   1.9158772  62.3304367
  46.7764807   2.1423554  62.4241924  12.0116115 102.6460457  65.1521063
  11.7236757 103.5475731  65.2955437  12.5954652 102.6986122  64.3954134
 111.5456772  92.9100800  89.3504906 112.0840645  93.5606480  88.8997841
 111.7624378  92.0817852  88.9225006  45.0128841   4.2541844  71.1741781
  45.4693794   4.0072516  70.3698969  45.5323219   4.9735785  71.5331841
  31.9242764   3.1010571  35.5362701  31.3097572   3.6906222  35.9733200
  32.1767521   3.5664845  34.7388601  81.9718075  47.7782154   9.1675442
  82.2549438  48.6908388   9.1111487  82.4453449  47.4266815   9.9214792
  71.4879084  45.2395630   0.0224292  70.7081127  44.9065876   0.4665871
  72.0526648  44.4731188  -0.0767964  91.7099667  95.0050354  52.8437662
  91.7657948  95.7691574  52.2699785  92.5108051  94.5121861  52.6649094
  97.5030136  93.8213730  75.7987595  97.5701809  94.7078800  75.4440546
  98.0091286  93.8492966  76.6107321  19.1412330  84.1320515  16.3360775
  19.7188699  83.4229851  16.0536158  18.4054542  83.6880493  16.7576492
  12.3761642  92.4001598  51.5606546  11.7191231  91.9995689  52.1299124
  12.6494539  93.1891918  52.0285988  62.0763016  27.5138283  78.0653381
  62.8525496  28.0298781  77.8477192  62.0692348  26.8076968  77.4191523
  67.1519566  33.1967354  70.4861879  67.8976774  33.7715530  70.3137827
  66.4655161  33.7835765  70.8034277  12.0596015  12.7189887  77.5897503
  13.0141020  12.6772273  77.6482105  11.8578255  13.6537981  77.6303530
  16.5972364  34.3849945  52.7221823  17.1231008  34.7036409  51.9885874
  16.6910779  33.4330034  52.6884604   7.6000184  21.9999671  43.7206173
   6.9958431  21.7107224  43.0368471   8.4026080  22.2266722  43.2508421
  34.6917987  94.2112350  47.5692749  34.2859507  93.4049320  47.8877068
  35.0760841  93.9693546  46.7266321  14.7204125  85.0490952  66.6874075
  14.6324468  85.6183052  65.9228849  14.1530347  84.3021965  66.4964724
  81.0102367 102.3093510  52.5126457  81.6272354 102.4423122  53.2322788
  80.2690029 101.8553257  52.9134750 105.1284027  18.3386791  63.4440994
 106.0044670  18.4460640  63.0736876 104.5618343  18.2049084  62.6842690
 110.4481316   3.8650796  74.3169975 111.2368870   4.3908149  74.4500828
 110.3404140   3.3830649  75.1369333  56.1242628  24.9639368  41.9711542
  56.5806675  24.6265793  42.7419424  55.4998827  24.2755151  41.7421198
 105.9842968  44.8844481  22.8698897 105.2833939  45.4924059  23.1051850
 105.6149387  44.0171766  23.0361748 101.4723587  91.4273167  65.9176254
 102.1781349  91.9312000  65.5123806 101.3920784  91.7932129  66.7984819
  57.8979206  53.6648750  16.0468769  57.3878813  52.8722429  16.2136936
  58.5212851  53.7056303  16.7721248  64.6475267  12.2885513  69.1091204
  65.5705976  12.5100720  68.9862394  64.2219067  12.5798488  68.3027554
  41.9512987  72.1206045  57.8969717  41.2971878  71.4511585  57.6964378
  41.9010592  72.7322102  57.1623659  29.7976422  20.0034738  46.2622070
  29.4175696  19.1462219  46.0701180  30.4699397  19.8254657  46.9199038
  45.9041834  87.4027634  83.6449623  45.5542088  88.2870102  83.7538147
  46.7064333  87.3967457  84.1670704  43.9057589  79.4904470  69.8893642
  43.0475712  79.4361782  69.4688845  44.1856623  80.3946114  69.7466278
  15.9301448   2.4372707  61.7529774  15.0984120   1.9697726  61.6761780
  15.7480097   3.3092517  61.4026785  30.6392002   4.2818284  82.9866219
  29.6897411   4.3013465  83.1065273  30.9638214   5.0014299  83.5279369
  45.3404856   4.2277882  55.7215691  44.6503782   4.6933419  55.2490807
  46.0661268   4.1793537  55.0992107  84.5621490  93.4060478  48.2898617
  85.2046871  92.9702759  48.8497543  84.9262905  94.2788029  48.1417704
  43.1486893   3.4386584  49.2127132  43.3220577   2.4979287  49.2473841
  43.6167574   3.7399268  48.4340096  85.8304501  15.7447350   0.7582695
  85.5112839  14.9992943   1.2668791  86.5335751  16.1152220   1.2917392
   0.8017629  83.9037323  72.7789831   0.1066747  83.8282490  72.1252394
   0.8318634  84.8369217  72.9899120  57.0721769 104.7734737  57.2015047
  58.0177450 104.7859287  57.3497486  56.7072582 105.2580929  57.9419184
  55.4558468  22.1215916  78.9001608  56.0513401  22.0604920  79.6470785
  55.8810043  22.7388000  78.3047390  33.7381291  97.2916889  57.4342823
  32.9003239  97.7376080  57.5586653  33.9371943  96.9127560  58.2904434
   9.9303705  59.8819685  87.3482132   9.3226379  60.1721144  86.6679859
  10.5132747  59.2674351  86.9023323  14.4826353  85.2528286  54.0907097
  14.1796064  85.7812977  54.8290396  15.3863454  85.0279903  54.3120384
 110.7725906  91.4650154  53.7356853 110.0579548  91.1886597  54.3094063
 110.9263515  90.7121181  53.1649494  58.0648136  13.0844390  80.2326584
  57.6838684  12.3628032  79.7323036  57.7018785  13.8731635  79.8296404
   3.5900331  95.2085400  56.0748053   4.5182517  95.3437138  55.8840990
   3.5018495  95.4269600  57.0025730  13.8368058  60.2342606  80.9010887
  13.3419800  61.0143614  81.1517239  13.9863586  60.3371954  79.9612617
  13.7278542  83.7658079  91.4441559  13.8579640  83.5713394  92.3723189
  12.8441987  83.4502657  91.2549074  61.3355732   9.6064913  69.5679951
  61.4332581  10.3806829  70.1223564  61.4603233   9.9327606  68.6768055
  76.1534786  79.8848200  67.2930765  75.6928015  80.4316521  66.6566992
  75.4946756  79.6842432  67.9578924  49.4415188  65.2867985  16.5651500
  49.6111536  65.2423954  15.6241488  50.2793074  65.0628948  16.9703805
  50.3284836  17.9896629  89.9430752  49.5093107  17.9485631  89.4496155
  50.3233576  17.1986520  90.4820728  34.1626334  94.3801785  86.4324474
  35.0882220  94.2192554  86.2490845  34.1516018  95.2216148  86.8886089
  29.0071273  11.9995201  62.4401951  29.9154592  11.7105210  62.3527575
  28.5722637  11.2851489  62.9058123  22.1156240  37.6948071  47.6603222
  21.3505030  37.4622703  47.1342516  22.7787352  37.0487094  47.4172783
   5.6640983  95.9126759  42.9897070   5.5467105  96.8551254  43.1090069
   5.2220511  95.7189941  42.1630812  75.6691742  71.3495779   2.8730410
  76.0185671  71.4918470   3.7527648  75.2913475  72.1936464   2.6259935
  29.3997717 106.2543392  84.7200775  28.9394832 105.8748150  83.9715290
  30.2544117 105.8232689  84.7193813  14.4255126  97.9168510  58.4209347
  13.5110605  98.1495190  58.5817862  14.4868922  96.9963360  58.6761141
  94.7242260   7.6695460  74.7005749  93.9837265   8.0319452  75.1869440
  94.3293285   7.2704732  73.9253139  58.2285023  89.4735909  26.1477542
  57.8580856  88.7001228  26.5729308  59.1756248  89.3457031  26.2010407
  98.9563274  85.6028271  63.0852509  98.7057495  86.3226604  63.6642838
  98.9486408  85.9869099  62.2085190  36.1282730  72.6270437  49.6589756
  36.0008836  72.0451069  48.9097452  36.6550446  72.1153116  50.2728748
  42.7200651   4.9768046  85.4660130  42.0132542   4.9802876  86.1114788
  42.8737116   5.9018928  85.2740765   2.3724021  96.2109852  50.7520437
   2.3385528  95.9186363  51.6628742   2.0131584  97.0979977  50.7716990
   0.5437554 101.8609238  68.9743137   0.0004784 101.1347771  69.2805815
   0.9988226 101.5127754  68.2075405  52.3980808  14.8620784  34.5214581
  51.6575432  14.3627322  34.1772342  52.3069191  14.8009026  35.4723406
  87.1499920  60.1208162  20.4126143  87.3323917  59.9759054  19.4841969
  87.3367500  59.2787504  20.8276796  69.2881441  26.9322133  65.9051037
  69.5120907  26.6094804  66.7779827  69.4672489  27.8717089  65.9438658
  90.0592804  80.3508091  42.5916624  90.6804848  81.0790539  42.5911140
  89.3944740  80.6026173  41.9506788 109.9720383  97.0853329  81.6610432
 110.7709789  97.2636223  81.1649227 109.6350002  97.9510784  81.8915176
  59.2674303  19.5852971  52.1702337  59.5777321  18.9668953  51.5087748
  58.3339977  19.6867406  51.9841003   6.4564240  20.7639766  81.6447353
   6.8355376  21.5659881  81.2851715   5.8976746  20.4280376  80.9438896
   5.0929242  99.2779255  26.1848927   5.9009916  99.3279839  25.6742525
   4.7954035  98.3748627  26.0745168  97.8436279  81.4046001  43.4860754
  97.8812695  80.6787968  42.8631592  97.8787327  82.1904087  42.9406357
  44.4729185  20.9878397  70.8421326  44.4150972  20.4999280  70.0206518
  44.5162296  20.3126192  71.5192080   0.5488310 102.1551514  77.5190830
  -0.3876877 102.3336124  77.4335480   0.7255559 102.2466660  78.4553671
   6.2056527 104.6853144  91.4668712   6.5402112 104.4663365  90.5971858
   5.9495816 103.8435919  91.8439176  65.0508213  30.9378242  63.6911631
  64.0991116  30.9824181  63.7833023  65.2182436  30.0558138  63.3591032
  88.3905983  63.5760593   9.4019240  87.7600193  64.2942381   9.3489105
  88.5000324  63.2860661   8.4962964   4.3487099  99.4940853  49.6019125
   5.2542120  99.8043060  49.5940590   3.8934207 100.0988293  50.1877689
  31.4642262 102.8270054  41.6114569  31.1738372 102.1538734  42.2269297
  32.0045948 103.4159946  42.1380758  17.6628327 103.1755543  84.0063000
  17.9260528 102.2731209  83.8258457  18.1879103 103.7030983  83.4044456
  70.8438158  10.8424759  80.9541607  70.6423712  11.3543558  81.7375088
  70.1582098  11.0801136  80.3299046  31.0200071  18.2368791  75.9272909
  31.8080688  18.7583125  76.0799360  30.9663248  17.6561475  76.6863060
  96.4422798  28.8605595  48.6250305  97.0995045  29.3034458  49.1618204
  95.7853222  28.5579324  49.2519665  31.4987659  12.1111524  48.0248260
  32.1532917  11.4131200  48.0489016  31.2717700  12.2584081  48.9429903
  59.9444628  22.9369259  65.0596619  60.0379419  23.7902761  65.4830885
  59.0153646  22.7251887  65.1500607  17.0308220  99.3024731  77.6688862
  17.1117318  99.2197895  76.7187023  16.1086595  99.1183853  77.8476620
  79.3948698  10.9767294  40.0105143  79.6939135  10.6510723  39.1615415
  78.9666128  10.2241039  40.4184103  47.2049570   8.1886977  61.7512131
  46.4991236   8.7898976  61.9890928  47.0432711   7.9817367  60.8307505
 104.2657471  49.0265512   3.0189911 104.0191746  48.7844419   3.9116350
 104.3572330  49.9789953   3.0457559  49.9883652  18.9548695  38.3504939
  50.8681202  18.5777318  38.3559489  49.8067474  19.1257322  37.4263453
  44.8990393   5.7101792  66.9552708  45.7778740   6.0736197  66.8466949
  45.0083303   4.7708437  66.8071651  11.3185775  54.8762035  88.0394840
  10.5319870  54.3574858  87.8708553  12.0412326  54.3112993  87.7658463
  55.5574417  62.8454399  14.7805572  56.3526583  63.2780647  15.0915134
  55.8285475  61.9447565  14.6030593  42.4534559  17.6639497  84.1628265
  42.4903059  16.7138529  84.2732239  42.0155764  17.7904618  83.3211040
  52.8546381  70.2078867  12.1839035  52.0446777  70.7166958  12.2199798
  53.0456066  70.1275587  11.2493920   5.2805501  67.8789091  20.2605772
   5.0491995  68.2648468  19.4157326   4.5347208  68.0772972  20.8268046
  27.7536345  24.9877667  61.9099426  28.0831003  24.9804425  61.0112619
  27.1391845  24.2546916  61.9457579  84.4092274  41.2900782   1.6197102
  84.9914074  40.5427599   1.7568702  83.5318184  40.9084177   1.5929492
  64.9342394  49.0438271   4.5034385  65.2041769  48.6890125   5.3504747
  64.7035408  48.2738066   3.9837429  31.3588333  98.5440922  58.2315207
  30.6191516  98.0414581  58.5727787  31.6741014  99.0463829  58.9828777
  40.9827662  47.6263189  79.5456362  40.9918404  47.3149872  80.4507446
  41.6764212  48.2850647  79.5119762   9.5864320  76.2641287  75.6538963
   9.0417302  77.0023012  75.9270954   9.1029692  75.4900169  75.9424162
  30.5733514  88.2314873  62.5371981  31.0134172  89.0811539  62.5119209
  29.7514677  88.4010410  62.9976273 105.6679058  94.7043419  67.7651882
 106.5503502  94.9960327  67.5361824 105.5997753  94.8635864  68.7065887
   4.6070591  26.0068417  72.2562838   4.2189556  26.5996194  71.6126823
   5.1090348  25.3813863  71.7337322  80.2954769   6.7096150  88.6871433
  79.7616625   6.8795335  89.4632816  79.6654367   6.6667324  87.9678059
  97.4049664  95.9273148  80.9748840  97.3372555  95.9645653  80.0208092
  97.5997448  95.0097466  81.1655331  27.5031495  21.8974948  25.0466228
  28.2100368  22.4996591  25.2788734  26.7287517  22.4550080  24.9710035
  82.3583412  10.8486795  34.5374870  82.7156067  11.1600578  35.3691339
  82.4304390   9.8955214  34.5877147   6.3707542  60.1885223  69.6099949
   6.1930400  60.9417200  70.1733303   5.5446684  59.7054672  69.5882797
  31.3970041 101.3679886  39.2921972  31.5917706 101.8522453  40.0945616
  31.8351054 100.5249691  39.4089174  36.4913321  34.5110202  34.9311900
  36.3152218  33.8965392  35.6436753  35.6300259  34.6980500  34.5578241
  94.8059654  63.2130527  11.1584079  94.6650600  63.5578585  10.2766573
  95.4636383  62.5268793  11.0449874  29.9706054   2.4437235  40.8441305
  30.1263094   2.0250851  41.6907310  30.6109214   2.0419852  40.2569103
  37.1202159   1.7581934  33.6810780  37.3060918   0.8867192  34.0306711
  37.9169154   2.2601466  33.8529682  52.8782654  30.6597114  79.5500135
  53.1295300  30.0679326  80.2591610  53.0882883  30.1777506  78.7501192
  41.1890602 104.8096561  54.0528202  40.4196310 104.5767975  54.5724201
  41.4529610 105.6670666  54.3866348  43.3494377   0.4046971  54.8429394
  44.2795801   0.5218235  54.6496964  43.3130026  -0.3933187  55.3702688
 108.6748791  12.9996705  54.5962191 107.8043365  12.7119577  54.8711872
 108.9937305  13.5298181  55.3266382  87.5743866  59.4357491  12.8320467
  86.7382431  59.2924213  12.3887026  88.0531120  60.0299883  12.2541785
  67.3752213  27.8928423  41.7921448  68.1808615  27.7523136  42.2895622
  66.9679117  27.0278263  41.7465544  13.0081832  91.0772228  72.4168205
  13.2841027  90.1845932  72.6249456  13.7807441  91.4805698  72.0209789
  80.1311493  63.5741711   4.5825830  80.3285408  62.7806902   4.0849334
  79.9590158  63.2629299   5.4712510  15.6214452  74.2017221  85.4120541
  15.2664220  74.5941448  86.2096691  16.2993610  73.6011457  85.7218456
  39.6888161  96.3395309  87.5654697  39.9715972  96.4908791  88.4673309
  40.3412676  96.7918968  87.0307732  24.1346264  11.4250231  69.0097761
  23.6501622  11.6467917  69.8049784  24.9735570  11.8755698  69.1069317
  56.9403315  16.0895753  58.3785295  57.2290802  16.3197637  59.2616320
  57.1829271  15.1689303  58.2795715  31.3678765  15.1816213  61.9948149
  32.2186136  15.2989709  61.5720749  30.7343650  15.2462363  61.2801695
  84.8204899  24.7468448   1.9853041  83.9961910  25.2028489   2.1550421
  84.5563221  23.9030004   1.6187374  84.5500755  52.0896482   3.2459849
  84.1399002  51.2281799   3.1694195  85.4472446  51.9039679   3.5232109
  83.6458397  93.5871792  61.2973166  84.2832661  93.1414700  61.8552208
  83.0543995  94.0233994  61.9106197  73.7734985  11.1943281  85.3398228
  73.6256742  11.6162241  86.1862183  73.2143879  11.6767728  84.7308254
  55.2280283  28.5480714  65.3605795  55.5784512  29.0788198  64.6452188
  54.3824434  28.9480591  65.5636120  86.7928886  70.3107452  12.4922061
  86.1346817  69.6754885  12.7740610  86.2876987  71.0849762  12.2440445
  81.8263721  30.9291148  77.9823542  82.1148491  30.0240564  77.8645325
  82.2604370  31.2161946  78.7857294  47.9125357  72.2837687  49.6798468
  48.1440210  71.3854408  49.9157619  47.1439266  72.1930027  49.1166115
  38.8642049  23.5596514  67.5342035  38.5930228  23.5426664  68.4520292
  39.7674322  23.2429671  67.5454235  41.8920088  42.6770926  40.8671188
  41.3892651  42.4645472  40.0807953  42.8031492  42.5221872  40.6180048
  15.8497369   5.2297682  61.2085867  15.3812313   5.8314818  60.6300783
  16.3259172   5.7999116  61.8122625  92.2095966  82.7336216  10.7315576
  92.0568085  83.0491066  11.6222632  91.3369370  82.5241375  10.3986645
  62.9739141  17.7252507   1.1273061  63.0117893  18.4577012   1.7423779
  62.1528149  17.8535306   0.6523660  11.3320613  94.7264385  40.3403902
  10.9970021  95.5050182  39.8956656  11.6365802  95.0477886  41.1890602
  91.0426617  93.7271118   4.6127191  91.7929363  93.8158894   4.0249741
  90.4131889  93.2008266   4.1197529   4.1262567  55.6204605   8.5022998
   4.5840785  55.2814293   7.7330863   4.7007829  55.4054022   9.2370796
  48.8201332  25.0394511  41.2189913  48.4785366  25.9083652  41.0079670
  48.3773613  24.4526482  40.6059313  45.7215118  27.0516372  55.5780602
  45.7134676  26.6980934  54.6885824  46.3905859  26.5402031  56.0330391
  53.4280539  35.0695586  76.6337299  52.5564194  35.0750923  77.0292664
  53.4848452  35.9036565  76.1675882  40.6198549  17.7602279  32.4091005
  40.9084368  16.9275606  32.0354509  40.8285570  17.6898837  33.3406186
  87.4956608  63.8910818  18.5682142  88.3676910  63.7019587  18.2217765
  86.9777393  64.1257381  17.7981961  32.5051332  21.4607739  63.6377430
  33.0866575  21.2734580  64.3746090  31.6338110  21.5206385  64.0294647
 110.7126999  90.4780960  33.3493972 111.1218452  91.0052967  32.6631832
 111.1634731  90.7388020  34.1525578  44.4446564  30.0349236  41.3425064
  45.0300407  29.5468211  41.9215679  43.5956383  30.0099683  41.7838383
   0.3131563  49.7514915  21.7889833   1.1755163  50.1446342  21.6547966
  -0.2047556  50.0491047  21.0410380  78.1605053  26.4843702  68.4646749
  77.2035646  26.5009475  68.4499121  78.3926010  26.8226957  69.3294859
  69.3492508  11.6738522  54.5436430  69.2895079  11.7909741  55.4917717
  70.0652122  11.0498965  54.4240284  49.7063494   8.7196755  69.1214037
  48.7765646   8.5040945  69.0488672  49.7316599   9.4773012  69.7058678
 104.7899532  44.0275049  28.0892420 104.5172310  43.7141085  27.2268963
 105.6919384  43.7206364  28.1813645  62.1530628   4.7000420  49.1629601
  61.3646555   4.1572806  49.1556263  61.8526077   5.5627429  48.8771200
  28.0109477  88.6521435  63.2509518  27.1649075  88.2526112  63.4530115
  28.0334139  89.4475079  63.7830400 112.5490093  14.1434491   6.1929989
 111.9467831  14.3419862   6.9100279 112.3632240  14.8108101   5.5324346
  83.3796024   4.0701371  82.2836304  83.1797886   4.5033807  81.4538002
  83.2044601   3.1437153  82.1183968  96.5635164  54.0124983   0.6046662
  96.2314851  54.7278572   1.1471161  97.2858198  54.4013190   0.1113876
   4.3441585  68.0096340  79.8591185   4.3714586  68.8840008  80.2476692
   3.9587444  67.4572372  80.5392265  81.3838196   6.4755434  76.5486622
  81.5916061   6.1116475  77.4092627  80.7538605   5.8598799  76.1740398
  40.7205009  82.3954296  24.6549368  39.8928595  82.5485611  24.1990948
  40.9554386  83.2493019  25.0181603  12.5994492   3.6056459  49.7028065
  12.2852659   4.4898605  49.5139027  13.1983221   3.7169078  50.4411840
  81.2034607  22.3981285  67.4930096  81.9350052  22.2273731  68.0862331
  80.5601597  22.8581309  68.0322599  16.5655613 101.3488674  24.7044635
  15.8509231 101.9709969  24.8404002  16.5243566 101.1367798  23.7719655
  44.0078354  90.7379627  67.2455835  44.8796225  91.1062241  67.1020555
  44.0183163  90.4458618  68.1570673  79.3773842  14.1523349  77.7892113
  79.0647173  15.0046670  78.0925226  79.5910501  14.2901325  76.8663931
  89.9812889  53.3046341  22.2749352  89.3841553  53.9237642  21.8550205
  89.4754982  52.4951506  22.3466516  29.5200205  98.7866020  53.8055992
  30.0042963  97.9611301  53.8230038  29.8466921  99.2719555  54.5631933
  30.0874901   4.3954256  57.1066189  29.4301629   3.7374485  57.3329353
  30.3301907   4.1907927  56.2035894  44.6495342  97.8341007  53.7168264
  44.3442297  97.6132393  52.8369188  43.8566208  98.0891991  54.1884661
  86.0258675  53.4552956   1.3133761  85.6895351  52.5944567   1.5625115
  85.9082317  53.9940166   2.0957932  20.2180338  79.5273399  87.8446865
  20.1028132  78.5889769  87.9944515  20.9080648  79.7845268  88.4561920
  80.6416893   2.6512632  80.2916622  80.4431915   1.7599681  80.0045681
  80.0262928   2.8153720  81.0062122  26.0370660  31.4538836  58.8228846
  26.5743685  31.5962911  59.6021509  26.4418221  30.7041693  58.3866119
  27.0174313  87.7445507  53.5511398  27.1965170  86.9382286  54.0348864
  27.5414205  88.4114647  53.9948654  32.9884744  16.8096399  88.4632969
  32.6348829  16.1760557  87.8389835  32.2157550  17.2141480  88.8576412
   1.1459269  69.8892784   4.5070732   1.4487366  69.5568848   3.6620581
   0.7688005  70.7458401   4.3063009  49.5454454   2.0376766  74.2106295
  48.7932110   1.4800671  74.0120268  49.9365616   1.6435018  74.9903011
  14.8841381  64.1456413  83.2658005  15.7821786  64.4305372  83.0967236
  14.3421853  64.7440958  82.7516365  46.8359613  40.1806688  56.7630196
  46.2929153  39.5074630  56.3529873  46.2669563  40.5790806  57.4216032
  36.9422460   6.0061330  87.9289722  37.0057416   6.9233221  87.6625824
  37.7447820   5.6040627  87.5965405  32.2408915  18.7968957  39.1593671
  31.9885397  17.9946136  39.6164155  32.1401334  19.4875288  39.8144269
 103.7613010 103.9546967  72.5823164 104.0688896 104.8265839  72.3344374
 104.2358589 103.7536430  73.3889151  67.6967049  27.2718692  79.1785240
  67.2218800  27.8981137  79.7249603  68.5394335  27.1607351  79.6186256
  88.6979866  12.3342228  55.1545286  89.2569256  12.8542411  55.7319403
  88.1501579  12.9790831  54.7070169  89.9125862  25.2161670  58.8757038
  88.9900780  25.3747702  58.6755371  90.0173950  25.5187559  59.7777510
  88.7911129  80.7177639  24.9521446  89.0209484  79.8058987  25.1307750
  89.0865898  80.8677387  24.0541267  56.7149067  19.0850723  91.3122463
  56.1281967  18.5984457  90.7332802  56.3835907  18.9081645  92.1926785
  42.9805326 100.7777500  77.2092247  42.0239258 100.7453918  77.2187233
  43.1951046 101.6303635  77.5877047  31.0553217  67.1467829  10.2765107
  31.0706711  67.5112724   9.3915570  30.5179787  66.3581991  10.2014589
  83.3015156 104.7766304  66.8369627  83.7000561 105.5504704  67.2351789
  82.7850342 104.3841553  67.5408411  58.5188818  31.2098312  47.8395319
  58.9519882  31.0248661  48.6728621  58.6886883  32.1386385  47.6823187
  37.6652265   8.4135246  90.4020405  38.3150315   7.8949320  90.8764267
  37.3862052   9.0801626  91.0297108  22.1051097  91.5142250  81.9748116
  21.4000916  91.7255688  82.5867844  21.7564678  90.7961845  81.4465141
  52.9977798  11.8494165  66.2745571  53.2312489  12.5398481  66.8950653
  52.0452690  11.9069529  66.1994505  45.5994654   8.4917933  65.0292873
  45.1054382   8.2874870  65.8232832  46.2827444   7.8224075  64.9934387
  72.4050283  74.8955727  68.7069511  71.7086506  75.5305624  68.5393906
  71.9928312  74.0440416  68.5612869  66.4923668  17.2458351  88.9852810
  66.7258024  17.9642332  88.3973694  66.3576078  17.6657450  89.8348427
  54.4047594  18.3765435  83.0208302  54.4942045  17.7479684  83.7371635
  53.5142708  18.2440472  82.6957130   9.8225677 100.9502125  77.1932507
  10.1624513 101.7097092  77.6664114   9.9688148 101.1578655  76.2703609
  61.7735720  30.8591795  76.7221642  62.6648474  30.5903172  76.9448137
  61.6016722  30.4426885  75.8776426  56.3974094  27.4483514  69.9437571
  57.3248577  27.6605988  69.8387575  56.3925505  26.5426755  70.2535248
  70.4581404   9.4343555  59.2424393  70.9153223   9.0980697  60.0132370
  70.8216667  10.3100991  59.1114616  82.6380730   7.9956430  65.2355003
  82.8836727   7.0918095  65.4329729  83.4412193   8.4977293  65.3736782
  55.7575369  17.7446067  45.7532787  55.5669546  16.8541682  45.4582691
  55.8406115  17.6693499  46.7038918  34.9013209  12.9439604  55.2678061
  35.3645706  12.1109915  55.3561020  35.3136587  13.5170305  55.9141779
  12.6253402  81.1753941  62.2097397  13.5757422  81.2585735  62.2875214
  12.4176037  81.5802097  61.3675976  97.7940083  95.8260632  60.9846258
  97.0362282  95.9151936  61.5626049  98.1394863  96.7150784  60.9038353
  45.1774311  43.9603662  53.6940432  45.9066010  43.6899805  54.2521095
  45.5671501  44.5740461  53.0713511  57.2348070  24.7650886  53.9811182
  56.7909288  25.6127715  54.0063810  57.0900488  24.3929052  54.8510361
  57.5631762  15.2837586  67.0722818  57.3710060  14.3704057  67.2846222
  58.3586597  15.2439702  66.5413857  20.1186705  44.1727781  27.7199006
  20.7836771  44.5242167  27.1278787  20.5373144  44.1782951  28.5806799
  41.3848114  88.1756306  83.7708187  41.3237906  87.7592945  82.9110718
  42.1812677  87.8115463  84.1572571  58.8252306  24.0083456  68.9532375
  59.3994141  23.3749008  69.3836975  58.4749556  24.5389938  69.6687460
 103.5307980   2.8185853  75.1929474 103.6090469   1.8648282  75.2143192
 103.3435726   3.0639026  76.0990381  24.0380764 103.6139107  67.5906277
  23.7964392 102.7742577  67.1996927  24.7193837 103.3949184  68.2263088
  41.6073465  53.1386852  29.3876886  41.0748529  52.5499916  29.9225926
  41.2786436  53.0162144  28.4970760  20.8375120 103.0807686  64.2951822
  20.3232455 103.8792706  64.4142008  21.1261415 103.1154823  63.3831930
 110.9629345  85.9945583  77.9742241 110.2801323  86.0180092  78.6446476
 111.7816830  86.0766506  78.4632444  91.6340351  56.2079191  66.4104795
  91.9031143  55.2920914  66.3391924  91.9912529  56.4978743  67.2498512
  29.6064711   9.4024622  66.0838938  28.8610578   9.0310484  65.6120443
  29.6403003  10.3152835  65.7978058  46.2234688   4.3133235  89.1865444
  46.2882614   5.0619376  88.5935783  45.4857969   3.8044792  88.8501740
  33.3765912 105.9113216  77.1510220  33.8572478 105.1253128  77.4106407
  33.0334854 106.2643337  77.9719305  30.0247312  28.3096457  65.7358837
  29.5791483  27.4923825  65.5127907  29.3192172  28.9071393  65.9838438
 100.2959538  55.6172037   0.9077502 100.9992313  55.9728146   0.3644538
 100.4465866  55.9970522   1.7733464  18.6149716  14.4155848  76.4742613
  17.7984953  14.9060750  76.5692234  19.2102015  15.0238299  76.0361147
  25.4944086  64.6308708  67.1040440  25.2285004  64.6617603  66.1850357
  25.0266075  63.8771057  67.4635267  96.4936256  43.5659027   6.6765994
  96.3852787  44.3748808   7.1766460  96.0445404  43.7343836   5.8482474
  25.3267956 102.5469208  51.7188263  26.1097789 102.9964161  51.4008427
  24.7741747 102.4507904  50.9431982  24.7259419   4.8937323  90.8939021
  24.7162526   4.7135403  91.8339389  25.0446932   4.0827038  90.4978395
  13.6211753  96.5929985  44.0114546  13.6712182  95.7836628  43.5028315
  14.5104885  96.9462490  43.9875937  98.0716038   8.7707239  41.0971785
  97.5287056   8.2351667  40.5186749  98.3546352   8.1685668  41.7853117
  18.7148476  99.8785210  58.4638214  19.0522099 100.7561874  58.6430693
  19.4886136  99.3690395  58.2231045  70.5729914  21.4797473  40.4695892
  70.7909489  20.5557823  40.5921173  69.9211359  21.6637993  41.1459351
  76.2621927  12.1670604  85.7146072  75.4435444  11.7153502  85.5096722
  76.6591787  12.3422241  84.8614120  11.3821518  99.6554756  32.7295589
  11.6233122  98.7295055  32.7552509  11.6526771  99.9493885  31.8596935
  49.4995928   0.5351318  44.2830276  49.9720430   1.1242396  43.6948299
  50.1545429   0.2622137  44.9255180 110.9118843 105.0946140  84.2712212
 110.9124565 104.4096088  84.9398041 110.2336597 105.7069683  84.5562840
  73.9375210  95.6651878  74.6612787  73.9949226  95.2863026  73.7841320
  73.7064648  94.9277210  75.2260780  87.9673958 100.7057476  45.4082823
  88.0337811 100.0281906  44.7354174  88.2361698 101.5105057  44.9651527
  74.3583632  34.7586083  84.3435574  73.4264326  34.5415902  84.3689346
  74.4186449  35.4833388  83.7211704  74.2299843  91.7098141  78.6470985
  74.5283461  91.3142204  79.4660711  73.6995888  91.0297394  78.2318830
  33.4958816   7.5984305  50.2963924  33.4784079   6.7086530  50.6488419
  33.3598471   7.4861008  49.3555880  33.3062100   9.9180794  60.3636503
  33.5055685   9.1456068  59.8347139  32.4181819   9.7647351  60.6863356
  92.8518867  68.4267664   4.1888535  93.5110188  67.9383993   3.6956191
  92.1678638  68.6203766   3.5478738  59.6866512  20.7206321  79.8260975
  60.3738260  21.2947726  80.1643085  59.4612408  20.1557136  80.5652142
  59.9523735  42.7036333  81.2701130  59.6005678  43.5742426  81.4558601
  60.8870649  42.8492069  81.1238480  46.0645056  25.6430411  78.1460524
  46.6819906  25.0297618  77.7475119  45.9138584  25.2942491  79.0246201
  40.1731968  33.3789134  57.5376654  40.8697557  33.8415432  58.0035067
  39.3691397  33.6447001  57.9838514   7.8215373  48.8818550  69.7666454
   8.2051998  49.7547579  69.6825266   7.9984891  48.4603930  68.9256430
 103.2179165  86.0091209  21.5418887 103.3901787  85.4855061  22.3244381
 103.9312267  86.6470051  21.5187216  56.7660666  17.2571456  55.3118753
  56.2856865  17.6871979  56.0193491  57.0501661  16.4237440  55.6873274
  54.9387550  30.2895069  36.1280012  55.8655739  30.5174398  36.0552859
  54.5224571  31.0834599  36.4635086  74.5995522  27.1460319  42.8929329
  75.1949596  26.4481211  42.6197338  74.1396618  27.3959064  42.0914984
  22.6319671  82.5544739  86.0587025  22.3863792  82.7636242  86.9599056
  22.6593184  83.4021950  85.6150246  40.0437164  33.1588387  34.6268559
  39.3504930  32.4993992  34.6553040  39.8886204  33.6343360  33.8107204
  99.4869995  84.5385075  14.4719887  99.3742561  85.0817776  15.2519763
 100.2478600  83.9920330  14.6686661  40.5460930  23.9626646  17.7472734
  40.1583767  24.8378086  17.7530754  41.4898396  24.1185641  17.7828896
  13.9155376  94.6518135  53.0026197  13.4566593  95.2007961  53.6384439
  14.4695699  95.2616215  52.5153732 108.5747051 105.0546646  34.3853593
 108.2971668 105.5601692  35.1493430 107.8206921 104.5033836  34.1761279
  39.6262169   0.4546826  76.8765354  39.5074916   0.1696182  75.9705114
  39.6069431   1.4106205  76.8313313  43.3721304  97.8018093  49.6743488
  42.6001072  97.6392937  50.2163792  43.7291050  98.6254025  50.0067568
  56.7872810  10.3778398  15.1151276  57.2549200   9.7394228  15.6536162
  57.4718189  10.8018053  14.5975459   6.4863676  66.0327721  17.2888649
   7.0312726  65.5012560  17.8692114   6.8421525  66.9176626  17.3702013
  48.7789440   5.3930086  85.1468849  48.5090256   6.3087565  85.0777340
  49.7022963   5.3957647  84.8946190  82.4508858  84.5862293   7.3516852
  83.1172276  84.5535564   6.6652751  82.2156906  85.5120373   7.4132991
  29.4496274 104.6312618  64.3053579  29.4649529 104.4271183  63.3703041
  30.3336644 104.4262409  64.6097898  85.9522915  32.7346349  75.0431156
  85.1031208  32.5623655  75.4498768  85.7429409  32.9534125  74.1350746
  30.7612205   4.1167468  24.6617174  29.9353123   4.5132729  24.3844509
  31.4322805   4.5974287  24.1770983 110.1939011 100.0474548  86.2108707
 111.0643673 100.2146816  85.8495426 109.7043133  99.6587086  85.4860210
  52.8975725  23.3068180  74.7924328  53.1663132  22.4495959  75.1228523
  52.6383448  23.1434560  73.8855982  37.5362635   1.1697036  85.9816456
  37.8959370   1.2775591  85.1011658  37.1615124   2.0245963  86.1936569
  80.2046299  19.7941494  67.6290512  80.3551388  20.7242656  67.4603462
  81.0821915  19.4183564  67.6990652 104.3989372  80.3008270   1.0555560
 103.8477516  80.5733871   0.3219773 104.5910835  81.1124229   1.5252616
  59.0738630   7.1273106  84.5485497  59.9607277   7.0991808  84.9075794
  58.7229681   7.9679191  84.8426247 108.2996845  51.9925594   7.7094543
 108.3924484  51.2729216   8.3337539 107.4444675  52.3736095   7.9085380
  10.4483199  17.9427564  40.3055382  10.9008229  18.6982012  39.9303365
  10.5714071  17.2455847  39.6613050  42.4188280  14.9099672  61.6384268
  42.6696825  14.5331395  60.7950354  43.1930351  15.3951812  61.9237375
  47.1549654  23.8226008  63.3131456  46.3450193  24.0820837  63.7523365
  47.1834755  24.3636560  62.5240469  71.3317347  32.7222276  43.8929749
  70.7199335  32.0699453  43.5517120  71.8043900  32.2661066  44.5892382
  47.5403261  27.0084739  49.4277525  47.6047611  27.7612066  50.0155258
  47.5351000  26.2492180  50.0106239  43.6211157  46.0760593  92.0445633
  43.8097286  45.4722738  91.3261604  43.4148026  46.9050550  91.6127777
  80.6941319  11.5189290  50.4875278  81.1628437  11.1874557  49.7215843
  80.1433563  12.2229433  50.1451302  52.6162148  21.4008522  89.1196728
  53.3972168  21.2210345  88.5962963  51.8850279  21.2112045  88.5317707
  69.2176390  15.9477305  65.6047630  69.5902443  16.3289750  66.3997746
  69.0226078  16.7006087  65.0467539  27.7481675  23.7555170  88.3116055
  26.9352889  24.2565155  88.2448196  27.7549076  23.4287906  89.2112923
  60.3844404   2.2297570  62.8467560  60.6935453   3.1346372  62.8900862
  61.0527706   1.7258596  63.3111429  46.9230461  17.2272301  71.0020590
  47.1634769  18.1351018  70.8171463  46.5721321  17.2489703  71.8923521
  66.7108440   9.5594203  76.6494131  67.0858288   9.4284153  77.5203037
  66.1854696  10.3552675  76.7320919  35.5434990  39.8587990  33.9736485
  34.6137857  39.7302532  34.1616321  35.9603763  39.0461636  34.2601299
  23.0572438   7.2479022  77.0161629  23.6894846   6.7027974  76.5477991
  23.1634855   8.1193930  76.6347837  38.0093837  99.2438889  32.8353071
  38.2242274  98.3129883  32.7760434  37.0649433  99.2818165  32.6842308
  59.6124363  30.9484386  50.4666996  59.6363020  30.5562806  51.3395548
  58.8168383  31.4806557  50.4649115  76.3921642   6.4710522  41.4207697
  76.4731550   6.9997764  40.6269646  77.2952223   6.3068712  41.6923618
  42.0202732  19.2190492  89.5459652  41.4401436  19.1751814  88.7858677
  41.4958334  18.8725269  90.2678490  88.6717415  18.8995612  78.3456135
  88.5272408  18.0208552  77.9945755  87.8844643  19.0855002  78.8573313
  66.6651678  61.9637871   8.4124333  66.4028502  61.1381531   8.0053079
  67.5815678  61.8307877   8.6548203  70.8556128   1.9521962  56.9350863
  69.9654961   1.6020611  56.9716120  71.4183331   1.1780239  56.9504070
  61.5957117  50.5437708   8.5367292  62.5421429  50.6226349   8.6562371
  61.3011837  50.0308418   9.2893207  33.2507133  19.2538929  87.0723915
  33.2160568  18.4941161  87.6535702  34.0180111  19.7451556  87.3658943
  21.7651081  24.0869498  38.7723470  21.8816185  23.5762978  39.5735288
  21.4462161  24.9373531  39.0745926 107.8613853 100.7837963  87.3665047
 108.6323547 100.5014515  86.8744564 108.0393600 101.6981888  87.5866127
  81.5419674  24.3886352  84.6643257  82.1106911  23.6994171  85.0074863
  81.2014294  24.8281956  85.4434586  33.5533619  50.6558466  59.7675276
  33.4818625  49.7484446  59.4713163  33.6174560  51.1668444  58.9606762
  25.0311279  12.1675241  61.4478159  25.0634003  12.3589301  62.3851299
  25.8555675  11.7160237  61.2670374 103.7353516 104.2240238  81.8350220
 103.0119610 104.8469067  81.7645550 104.3984032 104.6842289  82.3496151
  56.5438414  41.7239285  85.3482246  55.7985640  41.3541031  85.8215332
  56.7378139  42.5409508  85.8076668  61.8348169  21.1825752  72.1035385
  61.7794847  20.5073476  72.7797318  62.5493908  21.7510724  72.3906469
  35.1335740  34.2760253  83.6588764  36.0570264  34.4381642  83.4660435
  34.6892166  34.3944955  82.8193855  46.7079401  27.6133919  64.9071932
  46.1597824  27.3265290  65.6375837  46.1113739  27.6487327  64.1594648
  40.0342989 105.4948521  56.8816757  39.5268273 105.5910206  57.6875639
  40.0159597 106.3643646  56.4818764  48.6580515  17.7527595  78.0119181
  48.5658026  18.3849382  77.2991276  48.3531618  16.9254649  77.6392841
  56.0263491  26.0297632  66.0218239  55.7503557  26.9134998  65.7787895
  56.8665981  26.1541176  66.4631319  24.0150380  27.6318955  40.9389973
  24.4580984  28.3705592  40.5214977  23.5866857  27.1708179  40.2177811
  11.5272641  90.6548119   2.7373332  11.7661107  90.9798241   3.6054069
  11.7456853  89.7231865   2.7619374  72.8652811   7.7625668  76.0679197
  72.9256439   8.6025894  75.6130028  71.9989634   7.4270421  75.8373785
  82.3056412  88.9154530   5.3957903  82.1626663  89.4949913   4.6475101
  83.1480789  88.4974384   5.2174550  27.6948547  31.2219357  61.1795425
  28.2253098  31.8062329  61.7212486  28.3257937  30.6137729  60.7944632
  36.7012954 104.6198845  71.0024309  36.6472673 105.3021622  71.6716146
  36.3628840 103.8348007  71.4329624   7.3268759 103.3047199  70.8498716
   6.5940034 103.7971687  71.2195015   8.0274475 103.9505100  70.7582998
  25.3898597  93.7748241  58.8392496  26.0817909  93.1960487  58.5191250
  25.5686426  93.8670635  59.7750711  38.2862306   0.8668497  66.0239220
  38.3684254   1.4475013  66.7804384  38.5343552   0.0041072  66.3560963
 100.5163097   8.0698198  55.7702637  99.6926880   7.6137459  55.9431028
 100.4572487   8.3308804  54.8512459  76.5643167  30.1685071  36.1341572
  77.4888420  29.9994707  35.9527564  76.0932922  29.5635080  35.5611444
  58.9071608  38.2673240  79.6634817  59.8160362  38.0034685  79.5200872
  58.9089775  38.6707139  80.5315304  62.6166487  18.9680111  60.4590988
  63.3456182  19.1149998  61.0617828  62.4223280  18.0343664  60.5414391
  55.2974749  20.2845216  45.1368570  54.9946117  20.7033038  45.9425402
  55.5497980  19.4013405  45.4062176  38.6304107   0.8037061  88.7179947
  38.8037674  -0.0656634  89.0790939  38.7544525   0.7002706  87.7745152
  61.8881845  27.7276683  30.6331015  62.7696848  27.5235438  30.3208113
  61.4053202  26.9063234  30.5411077  87.6929474  70.6045580   2.0596845
  87.9506302  70.1492834   1.2580888  87.5523949  69.9050665   2.6977959
  68.3540535  11.1066747  57.5385666  68.7733316  10.3276181  57.9039526
  69.0163422  11.7934692  57.6154900  60.5055618   8.2890946  58.0662775
  61.0160398   9.0015888  57.6815796  60.2902031   8.5969663  58.9466572
   1.3334133 104.3418980  84.2432022   1.5805471 104.5920277  83.3529186
   0.4204250 104.6176338  84.3247509  54.2745876  41.2689686  77.1354151
  53.6274719  41.8889093  76.7990446  54.3294668  41.4640379  78.0709219
  98.7474155  54.9997187  25.1632690  99.4538784  54.4800901  24.7797036
  98.0000782  54.8528337  24.5834899  26.1443686 100.4140568  78.4392166
  25.4969287  99.9117374  77.9445219  26.4918017 101.0442448  77.8080463
  96.4736748  17.0010567  39.0480447  96.9539642  16.2472248  39.3905163
  97.1026611  17.4489391  38.4823561  94.7262383  36.1477852  67.6975441
  94.8813820  37.0207286  67.3368073  93.9613342  35.8243966  67.2215462
  49.4279194  30.3528571  46.2752056  49.6924686  30.5810380  47.1663713
  48.6793423  30.9214020  46.0945940  43.8144970  22.2211695  60.7571745
  43.8257647  21.2979770  60.5045462  43.2863331  22.6477098  60.0823879
  41.0647583  19.3708074  74.2158031  40.3251314  19.9531341  74.0423632
  41.5718031  19.8221219  74.8906755  31.3089347  14.5369649  87.2560406
  31.5960455  13.6975574  86.8966103  31.1790490  15.0942361  86.4887047
  50.0665188  23.2388020  51.8616295  49.5486498  22.5737739  51.4079952
  50.9583569  23.1090569  51.5391064  72.8825140  57.0887709  40.3632116
  72.0719957  57.5949669  40.3078890  73.4892035  57.5434303  39.7788739
  46.4212799   8.0940419  85.3352070  47.1099138   8.3415961  84.7181702
  45.7500648   8.7680024  85.2280521  21.5877819  99.7904110  90.6782436
  20.7248473  99.8417568  90.2672195  21.9219255  98.9293575  90.4269409
  20.6832385  40.1181555  32.7809024  20.6241965  40.2113628  31.8300843
  20.8117890  39.1801929  32.9220939  69.6537781  22.5871730  61.0217237
  68.8631582  23.0248618  61.3372993  69.8426199  21.9250560  61.6866827
  53.1251144  13.4526050  63.7330723  53.2374382  12.9056108  64.5105076
  52.3078966  13.9258885  63.8892460   7.4235117  68.4258509  62.5582409
   6.6526520  68.4325933  61.9908237   8.1154746  68.0447626  62.0176935
  67.8134394  13.4214616  70.7193851  67.9966784  13.8378286  69.8771906
  67.6385689  12.5060606  70.5009985  79.3150043  23.1609082  69.2796755
  78.3772612  23.0690718  69.1110563  79.3783712  23.9003539  69.8841858
  93.6873245  31.2821674  52.2170448  93.3236504  32.0764899  52.6082277
  93.3995819  31.3111591  51.3045835  56.9734192  24.0991235  61.1148930
  56.4890385  24.8364353  61.4863443  56.3660479  23.7044072  60.4891634
  87.9999352  29.1374445  83.1905937  88.1738377  30.0255251  82.8786564
  87.6658058  29.2569685  84.0795803  94.4348431  32.7803302  75.0139189
  95.1921749  32.6817155  75.5909443  93.7349033  33.0907798  75.5883217
  62.8540230  12.2970045  81.9338799  63.5538721  11.7494321  82.2897053
  62.0762253  11.7398036  81.9619179  40.4190397  20.7628202  43.8401079
  40.5300903  21.5842628  43.3614349  41.1969805  20.7015824  44.3944454
  40.9891462  10.9469831  66.0367346  40.3769350  11.2384546  65.3611040
  40.8675575   9.9983919  66.0770130  66.4150524  17.2223139  78.6157370
  66.1573219  16.3058341  78.7150955  67.1442556  17.3335397  79.2257547
  38.0265212  47.0738506  75.1060390  38.9333487  47.3474884  74.9681425
  38.0723286  46.1204529  75.1779175 102.6734352   8.3928889  70.8048582
 101.8862534   8.9361078  70.7662916 102.3849487   7.5313973  70.5034637
  40.7316780  22.4819493  34.5437884  40.1648474  22.1099973  33.8680768
  40.2513742  23.2445765  34.8661900  74.9815941  35.7590032  77.2748804
  75.5705214  36.2430263  76.6959906  75.4636288  35.6837893  78.0984211
  55.1132059  35.9533906  86.3943958  54.3010855  36.1921144  86.8412685
  55.6188011  35.4784012  87.0539284  56.7888737  24.1436410  81.9461632
  57.5823641  24.5580244  82.2851086  57.0995522  23.3462930  81.5172672
  85.4100132  83.2708359  29.7241759  85.6080246  83.8590813  30.4528689
  84.5205975  83.5069180  29.4606566  74.4127893  31.6983533  86.4964962
  73.8517284  32.3405719  86.9312286  75.1357937  31.5589905  87.1081066
  27.9628968  24.9983096  85.3256416  28.5528803  24.7542882  86.0388088
  27.1228600  24.6069217  85.5651951  45.1824045  47.5680494  73.0117846
  45.6801176  48.3778763  72.8991127  45.6186676  46.9371605  72.4391747
 103.6305428  92.7007389  87.7819061 104.2602158  92.1469307  87.3203468
 102.8495216  92.6877785  87.2286701  44.1433811  49.8052502  74.6040535
  43.9072132  49.0214014  75.1000786  43.8151026  50.5318213  75.1337290
  70.6129313  17.7615559  67.4954367  70.1928043  18.5475051  67.1461391
  70.4210424  17.7839339  68.4329414  28.2852483  19.7265208  67.5200462
  29.0405345  19.7273242  68.1080723  27.9594636  18.8269615  67.5498486
  30.4754686  25.4066229  81.7396832  31.3063574  25.1191545  82.1181202
  30.4609895  26.3527203  81.8843365  42.1077919   0.4621151  44.1369200
  42.7326536   0.5711764  43.4200621  41.2783861   0.7826329  43.7825346
  57.1485615  35.3559446  52.9910851  57.9983950  35.4737973  52.5666761
  56.5280104  35.2765250  52.2666264  78.7999725  65.7932854  24.7707653
  79.4460869  66.1927032  25.3532052  79.2811298  65.6212473  23.9613700
  30.6645107  14.9098384  67.4228144  30.7505441  14.6854317  66.4962769
  31.1126351  14.2005765  67.8836489  79.8356915  66.5699434  11.9978237
  80.7253361  66.6886616  11.6651511  79.9492836  66.4154720  12.9356229
  78.9717722  38.4094381  18.4697497  79.8353720  38.0680227  18.2376695
  79.1085625  39.3500280  18.5829258  62.5500679   9.1661590  79.7893381
  62.8153563   9.6740532  79.0225935  63.2671642   8.5471064  79.9263906
  46.6721582  97.0303822  71.5338135  47.3930216  96.4223289  71.3699341
  46.9900703  97.8722477  71.2075758  48.9460373  90.7245064  66.6157150
  49.5265484  91.3011265  67.1124506  49.5266247  90.2650166  66.0090637
 102.3060131  80.0508595  17.9632366 101.4585209  79.6558332  17.7584422
 102.7649212  80.0819016  17.1237862  46.7953157  15.2978468  60.0735807
  47.6572371  15.2996087  60.4898882  46.7259789  16.1596322  59.6627903
  20.6484175 104.0246201  47.6010418  20.8604050 104.3256092  48.4846163
  21.3593364 103.4247017  47.3753691  49.1242266  26.9742584  66.0813522
  48.1893206  26.8336153  65.9316730  49.3587399  26.3322592  66.7514801
  72.8768635 103.5760784  89.6885014  73.1954288 104.2166328  89.0525532
  73.6176634 103.4350491  90.2780342  21.1423802  37.0748591  32.3951674
  21.7871547  37.4467230  31.7933202  20.6345606  36.4677095  31.8569112
  87.6276207  43.3701134  88.9364910  87.4923229  44.3177032  88.9346027
  88.3346748  43.2278728  88.3071423  59.6125507  13.2958889  58.3949757
  60.2374363  12.5930083  58.2169104  59.9585915  14.0504408  57.9183865
  55.9570694  36.1803651  50.5541849  55.3824329  36.2713552  49.7940874
  56.1642170  37.0800638  50.8069038  52.5013351  18.2692778  38.8474083
  53.1696033  18.0322492  39.4904232  52.9241514  18.9253294  38.2932830
  92.0592403  90.9318829   2.4109717  92.5506020  90.9210873   1.5895799
  91.3811970  91.5938568   2.2757745  50.2404833  11.8065596  50.1970196
  49.4920635  11.9220281  49.6115541  50.3799772  10.8599520  50.2235889
  13.5019994  96.2789345  55.8574486  12.6392817  96.4952278  56.2112379
  13.8710761  97.1219349  55.5940580  64.0374565  21.1006546  64.0867949
  63.9543486  21.7244482  64.8080492  63.2735109  21.2691069  63.5352087
  47.6968288  48.1198883  83.3535385  48.4418917  48.7095261  83.2376003
  47.1941996  48.2069349  82.5435925  41.6140985  61.5631437  43.7695312
  42.0055389  60.8573008  43.2549477  42.3575592  61.9893980  44.1959143
  39.0090108  45.2890396  55.3606224  39.7271061  45.0707340  54.7665596
  39.4313598  45.7414198  56.0908318 106.2934113  27.7733231  36.2436914
 105.6164646  27.4390054  36.8320870 105.8693695  28.4918141  35.7744408
  73.5511446  39.3667531  86.0217476  72.7678776  39.1300154  86.5184212
  74.2653704  38.9149213  86.4711475  73.6907721  22.1326447  91.6391850
  74.3558884  21.8578196  91.0080624  73.7598419  23.0871320  91.6596031
  16.1695278  30.7397294  90.0877762  15.6418121  30.3666162  90.7938385
  16.5110600  31.5571475  90.4502869  66.6518068  10.6324077  42.3207855
  66.4801311  11.5739262  42.3381901  67.2213840  10.4788268  43.0745935
  81.1726475  14.2173123  63.0118418  80.7404041  14.9653840  63.4238863
  80.5327034  13.8889444  62.3802757  71.3088083  28.7801647  79.8862123
  72.2247744  28.6749315  80.1434326  70.9121180  27.9261661  80.0581360
  56.0200071  26.7942142  80.1089954  55.9122467  27.5482416  79.5292854
  56.3953876  26.1139679  79.5499086  80.7690334  29.0949726  48.6438847
  80.7875443  28.5227776  49.4110107  81.6525745  29.0367699  48.2802963
  10.5697393 100.0008488  64.0055037  11.0766065  99.1965199  63.8942719
  11.1776638 100.6112862  64.4226646  37.7877164  98.7972069  44.4290829
  37.2382712  99.3990993  43.9270163  37.3497009  97.9498577  44.3492365
   7.1995890 104.5021439   1.3535778   6.7199445 104.0116405   0.6860565
   8.1058222 104.2078495   1.2621036  66.9735384  11.1817646  83.5379696
  67.7575970  10.7853794  83.1580257  67.0369816  12.1082032  83.3057690
  57.9009867  29.5888782  61.7808008  57.4510431  28.7693620  61.5754318
  58.5023832  29.7220492  61.0481215  24.8241019  50.7753134  39.6538305
  23.9846897  50.9693289  39.2367220  25.4699945  50.8892536  38.9566422
  57.4083996   3.2100281  82.6698780  56.8803453   2.7704430  82.0034313
  57.6408577   4.0505594  82.2752953  71.6178560   9.8637497  67.5699186
  72.5117397  10.1324177  67.7821112  71.4461517  10.2573514  66.7144489
  81.8416214  58.0533981  10.6211817  81.5897751  58.9191818  10.9424651
  81.5173626  57.4471331  11.2871635  48.5141468 103.9291382  72.3160553
  48.4871101 104.7050095  72.8759861  47.9888487 103.2788467  72.7823305
  68.5161114   5.3147018  63.7384892  68.6059427   6.0736322  64.3148422
  67.5966835   5.3235263  63.4723949  42.2600508  26.3024831  68.8622284
  42.0206261  27.0960641  69.3409109  42.4118900  25.6480956  69.5441055
  46.7685175  24.4379997  66.6518259  47.5676966  23.9430690  66.4713001
  46.1617136  24.1736078  65.9603643  24.6900153  89.1119957  60.2374792
  24.0417242  89.7717285  59.9911165  24.3165541  88.2843685  59.9344921
  34.6263146  18.8432860  60.1846695  35.4950356  18.6300766  60.5253983
  34.3741488  19.6392179  60.6527853  32.0985246  89.2828083  72.5193405
  32.5550127  89.0858650  73.3373022  31.1706710  89.1854000  72.7334213
  94.7570133   8.7315041  63.8752985  93.9517593   8.9761335  64.3313265
  95.4362106   9.2679530  64.2841196   6.7221719 103.7228203  39.5217562
   7.5635087 104.1296387  39.7288299   6.8113947 103.4376240  38.6123943
  85.9271717  61.5949917   7.6915228  86.5649605  61.5729284   6.9781017
  85.1370239  61.9621277   7.2951454  58.2555246  30.0749969  91.6905022
  57.6074028  30.7793880  91.6932583  59.0906191  30.5173111  91.8428326
  10.9535146  85.4285049  20.7149959  10.5975473  84.6009445  20.3914833
  10.2975464  86.0822773  20.4730701  50.3555870  20.6049109  49.4264555
  50.2880859  20.0519896  50.2048826  49.7344208  21.3161111  49.5832443
  25.7383919 104.8488045  47.8100395  24.8824716 105.1847935  47.5440693
  26.2291098 104.7690392  46.9920731  56.8420076   9.8091495  55.9091139
  56.0065603   9.3583751  55.7863665  56.6436434  10.5191028  56.5197277
  50.1842737  33.1943440  61.0566235  50.2921247  34.1072440  60.7897663
  51.0652590  32.9104233  61.3005209 100.7759571  73.5030270  47.1962690
 101.2378883  74.2357492  47.6036644 100.7482338  73.7250710  46.2655926
  89.5234489   5.2816862  79.1650629  89.3984795   4.5098746  78.6128664
  90.3013611   5.0805748  79.6852827  23.8808298  91.9465256  10.5704117
  23.9627886  91.9127083  11.5234971  23.7643623  91.0335350  10.3074908
  92.8202152  79.8768711   0.8260433  92.2028828  80.1596928   0.1513980
  93.6825752  80.0098228   0.4324978  86.6330719  50.1374197   6.3989580
  86.1436653  49.5462656   5.8269072  86.0478210  50.2922821   7.1403962
   7.2182453  96.5489292  61.9874096   7.5995129  97.4224567  61.8990135
   6.3664353  96.6997337  62.3971796 104.9956989  82.7651024   2.0012297
 105.5743504  82.8277206   2.7611446 104.7383595  83.6692715   1.8209946
  70.3624725  16.3015890  61.8703079  71.1742210  16.6565442  62.2326612
  69.8664379  17.0721853  61.5939713  26.8807650  88.5791206  89.2976379
  26.3498950  88.7468243  88.5189915  27.3347878  87.7585697  89.1057968
  54.0526676  40.1375246  59.7581768  53.6766577  40.2052593  60.6358194
  53.5820866  39.4099259  59.3514967  26.9406891 104.3082237  75.1845741
  26.6916251 103.9814949  76.0491276  27.3263812 105.1674938  75.3552389
  10.7117248  32.1841049  36.1457443  10.4237556  31.4249730  36.6527224
  10.4622769  31.9789672  35.2446771  19.7217667  92.1079445  68.3824825
  20.6128573  92.4409676  68.2762432  19.7528517  91.2215233  68.0225897
  90.5018806   8.5873002  56.6411972  89.9753857   8.1070346  56.0021544
  90.4481602   8.0615878  57.4393034  57.7630472  30.0452566  84.6680832
  58.5193825  30.0710821  85.2541924  58.1403589  29.9404359  83.7946510
  67.9563093  27.8949738  48.1135321  67.2163916  27.6633406  48.6748695
  68.4385395  28.5541201  48.6127424  56.0649300  91.4032269  55.4928541
  56.6867971  90.7091331  55.2743196  55.8055735  91.2170410  56.3952398
  34.2925549  42.1137094  53.3839321  34.1150284  41.9331646  54.3070364
  33.4672689  42.4601078  53.0446100  78.5829639  88.7132263   4.6109706
  79.2832804  89.2888260   4.9183273  79.0150690  88.1144047   4.0019268
  44.6280281  19.2490961  91.0238648  43.8388150  19.7273352  91.2781530
  44.3064492  18.3996250  90.7218419  70.0263119  23.3469176  88.3413696
  70.8448362  23.8397932  88.2837200  70.0338364  22.7791381  87.5707817
  55.8333540  30.2542472  63.4515810  55.3910875  30.9315324  62.9398060
  56.5405321  29.9483705  62.8836250   0.7582690  92.1063423  81.3750553
  -0.0870354  92.3075581  81.7765617   1.3764475  92.6922035  81.8119335
  93.2564831  64.5038128   5.3029537  92.6343441  64.7989941   4.6380967
  92.7092934  64.2400360   6.0427088  65.3583384  28.5147500  62.3159218
  66.0273695  28.2379961  62.9420471  64.9755096  27.6972675  61.9974947
  95.6530380  89.9687958   1.9671760  96.3124371  89.2772961   2.0242159
  95.9333420  90.5065346   1.2265693  60.2017927  18.3086073  56.9077492
  60.9268808  18.9333177  56.9225931  59.7399378  18.4580898  57.7327204
  91.0818100  12.0415628  53.9055061  90.3325462  11.9708908  54.4969749
  91.5672302  11.2268817  54.0354776  84.7705936  62.6833439   1.3780969
  85.0817108  61.8237066   1.6617566  83.8401985  62.5528669   1.1948766
  31.6675687  26.2024522  77.8256464  30.9818172  26.7856145  78.1510639
  32.3662901  26.7907166  77.5393486  78.8100433   3.8205040  88.4837723
  79.0663385   3.1736600  87.8263950  78.9979029   4.6652028  88.0745983
  49.1636181 101.8292904  66.7739677  48.4450245 102.2710228  67.2264385
  49.6405363 102.5344276  66.3362980  67.7628613  28.4281659  83.7741947
  66.8335629  28.2648730  83.9353371  68.0299997  27.7262449  83.1807518
  70.4365683  36.4487696  85.1745796  70.8517790  35.6306505  84.9016190
  70.4239750  36.9867325  84.3829632  70.4070568  37.6219273  80.4875755
  71.2803602  37.6179361  80.0957203  70.0981283  38.5208845  80.3750038
  68.2803440  41.5202045  90.4793739  67.4267626  41.2893724  90.1128387
  68.1050539  41.6926432  91.4044476  58.1761551  34.1659522  87.1829700
  57.7630854  34.8610973  87.6951981  58.7192822  34.6289229  86.5450764
  97.5475788  25.2757549  89.3297100  96.7099094  25.7264686  89.2229462
  98.1839752  25.8484817  88.9016819 101.1354160 100.5600929   1.0144939
 100.9112930 100.2783680   0.1275734 100.3190327 100.4737377   1.5067185
   5.0134283  46.9422531  57.5019598   4.1350788  46.5645838  57.5477886
   5.5140024  46.4654446  58.1640100  58.9536667  12.8039348   2.8303948
  58.1195545  12.4422157   3.1298032  59.5025444  12.0369196   2.6671448
  80.6117535  16.0369170  91.2769604  81.0997391  16.1850250  92.0870018
  80.5491543  15.0844204  91.2058067  55.2979565  17.4284923  71.5447950
  55.1983261  18.3799255  71.5118885  56.2240362  17.2914004  71.7443180
   2.7165690  72.7896261   8.9820910   2.4342090  72.8543425   8.0697769
   2.1223630  72.1483135   9.3718004  68.1818724  30.1955438  61.2796164
  68.4265709  31.1159182  61.3758659  67.7924776  29.9618602  62.1222305
  30.1686239 105.7393646  67.4460554  30.7130456 106.4726830  67.7325678
  29.2919827 105.9526157  67.7658319   2.0601407  73.3733273  41.0210752
   2.4914406  74.0577364  40.5094147   1.1493220  73.3927536  40.7273674
  27.2266722  10.0898743  51.5076494  26.4723611   9.5889664  51.8180370
  27.7965879  10.1636708  52.2731447  79.2593384  27.8786492  85.5260086
  80.0811768  28.3691263  85.5417919  78.5878754  28.5297704  85.7295036
  89.8047733  29.7558665  28.8868761  89.5758533  29.1274190  29.5716262
  90.7465935  29.6403551  28.7609148  67.0778656  36.4309692  62.2031355
  67.3713017  36.4732909  61.2930107  67.5117922  35.6554818  62.5588799
  72.7080536  85.1928043   1.5974960  72.5542927  84.2639256   1.4249913
  73.2486629  85.2034473   2.3873436  78.8313103   8.7459958  44.5926619
  78.8851070   7.8314835  44.8701620  79.3214417   9.2277020  45.2589703
  70.4357910  36.0952997  89.5729065  70.3568316  37.0491862  89.5827484
  69.8176146  35.8107328  88.8997650  43.8445473  27.0516992  57.5523901
  44.2870331  26.7110395  56.7749691  43.0796671  27.5138426  57.2094345
  70.3377151  22.6800823  71.8357611  71.2022972  23.0670834  71.9734812
  70.4747295  22.0251822  71.1512375  72.1035910   6.4884979  90.5774784
  72.3029041   7.4190581  90.4746914  72.8277588   6.0389173  90.1419353
  74.3736839  11.4283514  72.2540998  74.9807024  12.1489120  72.4230862
  73.7392998  11.7897725  71.6350985  57.2979832  15.6941330  49.4491100
  58.1952715  15.9834409  49.6146536  57.0700788  15.1693988  50.2165365
  57.8117943  91.7198277  14.2281938  58.5900021  91.1690521  14.3134475
  58.1453133  92.6154900  14.2810059  30.2100778  89.9545002   3.7431186
  29.8045015  90.3173923   4.5305532  31.0874009  89.6942043   4.0237993
  68.7259197  38.5904312  68.6162424  68.5033369  39.3676758  69.1286707
  69.6287775  38.7392449  68.3352947  48.2659817  35.5453467  75.7455921
  47.4542284  35.4319668  76.2399960  48.0238390  35.3519297  74.8399496
  75.3285789  27.5444531  69.0441370  75.0370932  28.3478665  68.6131001
  74.9421978  26.8398714  68.5240364  70.5035210  36.3495374  74.6670437
  70.9171057  35.8583951  75.3769445  71.1576891  37.0006895  74.4134760
  69.4781303  40.5040646  83.8644409  68.5629845  40.2277899  83.8153267
  69.4557953  41.4417887  83.6736298  64.8200464  37.6714516  62.7713633
  65.5890942  37.1745896  62.4922180  65.1128960  38.1506705  63.5464907
  86.4080238  38.7629151  83.3145523  85.8065128  39.1402507  83.9564514
  86.9075966  39.5104313  82.9861164  98.5049820  14.3747294  84.9134254
  98.7811470  14.2627692  85.8230495  99.3232155  14.4355440  84.4204426
  90.0226879  78.6128855   1.1721873  89.7523594  77.8468609   0.6658614
  90.9667301  78.5034847   1.2864652  90.8553219  19.0454578  61.3704777
  89.9886894  18.6884236  61.5646458  91.3816452  18.2816184  61.1343193
   3.5155502  16.7570317  82.6383400   4.3534395  17.1253312  82.9185677
   3.6599591  15.8108079  82.6320362  36.7934155  98.7486553  48.1536531
  36.5463305  98.0011559  47.6092052  36.0256505  99.3200970  48.1386232
  17.3649979  66.4473867  16.4051235  16.8226326  66.7672157  15.6841648
  16.8523657  66.6341400  17.1916103 110.2671337  81.9674015  12.2587490
 110.5245590  81.6757011  13.1333184 110.3830147  81.1952972  11.7049766
  66.8930244  46.6858816  91.1184502  67.3367119  45.9836912  91.5941620
  66.4377785  47.1844244  91.7970085  63.7127066  67.6629305  15.6241310
  63.9631224  68.3541727  15.0111806  63.9628696  68.0025625  16.4833748
  26.1370134  38.1862950  66.2838554  25.4095054  37.7182722  66.6936350
  26.6549778  37.5011158  65.8613920 104.2476463  60.9068155  23.2092595
 103.6910057  60.1320791  23.1307054 103.9327145  61.3490820  23.9975786
  97.6975918  29.9046254  65.6946373  97.0856571  30.2448273  66.3473463
  97.4022484  29.0084910  65.5335665  64.1655445  35.1908135  63.9542866
  64.8176479  34.5872688  63.5983038  64.3919468  36.0395694  63.5740376
  49.3466187  47.2796631  69.4690609  49.5288515  46.3527822  69.3144035
  49.7922373  47.7339315  68.7540150  80.6257629  18.5411894  78.7557840
  79.8570633  18.8309848  79.2470598  80.8061504  17.6624525  79.0897179
  54.1910934  34.6369886  67.6857328  53.9528942  33.8647771  67.1727180
  54.7181559  34.2923832  68.4066200  32.3260283  32.8516960  72.4300146
  33.1243229  32.7789760  71.9068813  31.6385388  32.4926209  71.8690729
  40.1909018  36.4605117  68.5129213  41.0836267  36.7231750  68.2886791
  40.2111578  35.5036902  68.4951687 106.7414665  91.7441559  19.5035732
 106.5301895  92.4314117  18.8716900 107.4189281  92.1296597  20.0591564
  49.7842979  14.7209871  33.0476952  49.9507093  13.9604223  32.4908471
  49.2325068  14.3846774  33.7538528  39.5999956  49.6308613  82.3844814
  39.2466974  49.6664047  81.4955711  39.5076990  48.7136984  82.6424026
  49.9319458  49.0581799   7.7184618  49.7631311  49.9675798   7.4720323
  49.5206308  48.9625025   8.5774702  72.0631647  32.8016257  81.3969898
  72.2250795  33.7416792  81.4764881  72.9359579  32.4113011  81.3510513
  73.3204842  42.3465633  88.1272984  74.2177439  42.2699165  87.8028297
  73.0704451  43.2490540  87.9292393  64.3006945  30.0172400  47.5572300
  64.7838068  29.6648717  46.8097830  63.9887714  30.8718038  47.2594786
  40.7384586  13.4255171  70.5330133  41.5522671  13.2192147  70.0732374
  40.0484562  13.0885446  69.9615431  53.5303211  32.8325796  71.9372940
  54.2483473  32.2467470  71.6975641  52.9311371  32.7945971  71.1917925
  45.6202984  29.0695953  86.7725849  45.4887629  29.6724010  86.0407734
  45.8439970  29.6352935  87.5116253  85.3794289  31.5010667  64.1206264
  85.6639099  30.8676934  63.4617329  85.7258129  31.1605668  64.9454355
   8.2533342  20.3185582  58.8199282   7.8191411  20.0962806  57.9963398
   8.8154405  19.5662189  59.0050077  56.5207100   3.2338721   8.3964378
  55.7193804   3.0055836   8.8675934  56.2786102   3.9928758   7.8658426
  82.6605034  39.7254705  81.2545586  82.0699024  39.3629742  81.9148731
  83.0290413  40.5071592  81.6661072 101.8999863  26.9357800  71.3685942
 101.6671562  27.8197575  71.6525078 101.4895248  26.3608599  72.0145178
 101.9974709  28.5087156  69.0020227 101.9567585  29.3799591  69.3963671
 101.7498779  27.9136753  69.7097301  81.6219616  20.5790520  83.0510998
  81.7492962  21.0168576  83.8927269  80.7567883  20.8669329  82.7598381
  89.8915577  13.2297349  68.3062887  90.8173943  13.4626901  68.3755207
  89.6741390  12.8558969  69.1602278  78.5043669  15.0910389  67.9762888
  77.9847956  14.5044851  68.5260487  78.7738371  15.7955456  68.5656023
  57.5591612  37.0626211  67.5138807  57.7155304  37.5457287  66.7024660
  57.6153851  36.1417055  67.2589540  95.0619411   9.3436682  78.2770634
  95.1847458   8.4429848  77.9771948  94.5912457   9.2580110  79.1061211
  86.8663883  37.2815084  68.3806515  87.0560741  38.1294155  67.9790258
  87.7271461  36.8959975  68.5441256  82.5373363  23.1729078  57.0413542
  82.5900841  24.0828490  57.3336792  82.6580715  23.2186532  56.0929012
  78.1860828  21.5424013  88.1926632  77.9389620  20.6325436  88.3579540
  79.0837622  21.4909267  87.8644085  77.0663738  39.7345853  85.1845741
  77.9839039  39.9557710  85.0250530  76.6716909  39.7066855  84.3129826
  95.9510040  13.1235123  65.8809471  95.1686478  13.5656786  66.2105513
  96.6535854  13.7636364  65.9943151  80.2547550  85.7150459   5.3555894
  80.1390076  85.2747822   4.5135671  80.5168629  85.0176048   5.9565049
  84.8693085  14.5290387  45.1105738  84.0072441  14.6659350  45.5034256
  85.4350185  15.1665461  45.5462265  66.1861086  22.3059964  56.7055655
  65.6239748  22.5987101  57.4228907  65.7724667  21.5026855  56.3896132
 100.2619648  65.6904840   4.5908782 100.2179241  65.5976629   3.6392075
 100.6410599  64.8657227   4.8946801 105.7557774  20.2208710  54.6625137
 105.7349873  19.5796502  53.9521360 105.0484848  20.8314586  54.4547987
  61.1033726  19.7860396  84.5044422  60.6073952  19.7497213  85.3223228
  60.9845448  20.6829381  84.1918945  78.6616564  14.5049763  86.8049622
  78.6758137  13.9825976  86.0029984  78.7521362  15.4089785  86.5035915
  97.9319000  26.5614700  68.2720613  97.0211887  26.8561244  68.2766390
  97.8920841  25.6655693  67.9373789  47.8737497  32.3792696  62.1415138
  48.0102062  32.6103592  63.0603218  48.7022448  32.5967169  61.7142582
  78.5322332   4.7048956  81.7594910  77.8340006   4.0514040  81.8001175
  78.8876772   4.7311750  82.6478577  62.1193933   4.9849579  53.2126284
  61.5647268   5.7499087  53.3656836  61.5532398   4.3673503  52.7497387
  92.4330425  96.0596371  18.0690539  91.5922928  96.4354515  17.8080368
  93.0335236  96.8048668  18.0861998  97.9123020  27.1491838  54.7255659
  98.1986237  27.9289198  55.2012396  98.2769203  27.2571540  53.8471365
  63.5217237  28.5568476  65.5157471  63.3306360  27.6969767  65.1411295
  63.1382656  29.1783047  64.8968887  96.8967152  90.5708790  13.7452948
  97.3494148  89.7331333  13.8426590  97.5851440  91.1876392  13.4964705
  67.1577358  28.3372402  54.6017790  67.7452421  28.2497358  53.8511705
  66.3701200  27.8567672  54.3467522  53.7479162 104.9870396  61.8632746
  53.1438398 104.5115376  61.2929964  54.5769358 104.9898624  61.3847876
 102.9648018  24.6822572  75.8917093 103.5790825  24.0153790  76.1985731
 103.4708595  25.2065849  75.2710485  99.2303944  47.4480200  49.1462994
  99.2752171  46.5580463  48.7967777  98.3161640  47.5567007  49.4082355
 110.0505257  32.8827214  71.5455914 110.8144855  32.9237747  70.9703493
 110.1698971  32.0749116  72.0450163  69.6361351  94.4397449  78.5700750
  69.9033928  94.9647999  77.8156757  69.2293501  93.6618519  78.1884527
  36.9664454 105.0022602  74.4033718  37.2955751 104.1265965  74.2006111
  36.0223389 104.8848248  74.5087433 102.7375507  62.1520853  82.9143333
 102.9097652  61.3453150  82.4288464 103.5638046  62.3463631  83.3568096
 101.0152149  83.1913185  68.6018801 101.3511753  83.1524944  67.7064180
 101.5280437  82.5386524  69.0786076  92.5560188  36.1823463  84.1930676
  93.3147240  35.5987644  84.1980743  92.1786118  36.0920334  85.0680733
 102.2264957  50.6424713  70.5535793 102.9543400  50.9064674  69.9907494
 102.0822906  51.3949299  71.1273766  87.2700691  71.1589050  75.4652691
  86.6247177  70.4626846  75.5878782  88.0521297  70.7073784  75.1478672
  88.5381603  44.4267559  85.8636951  89.0781212  43.6978388  86.1692238
  89.0403557  45.2089930  86.0920238  71.8072653  14.2985690  50.2343893
  72.3023558  14.0079033  51.0003090  71.8560505  15.2539992  50.2661133
  85.8147335  28.0491638  50.8821678  85.4978085  27.9839706  49.9813128
  86.0116482  27.1465635  51.1327028  23.7290645  50.8458567  69.5685530
  23.0891085  50.1347876  69.5358324  23.2597280  51.6064453  69.2258310
  73.6759567  71.6032124  69.4104004  73.6437893  70.6757975  69.1756725
  72.8116846  71.9401503  69.1743183 108.0507946  32.9414725  58.3210325
 108.1311703  33.7877154  57.8809786 107.4873066  33.1160569  59.0748358
  78.7538481  46.3796759  70.4029274  79.3106174  46.7900610  71.0646057
  77.9102039  46.2617159  70.8394861  58.5511453   0.2994031   7.8831661
  58.6392362   1.2177343   8.1383973  57.6694901   0.0559015   8.1653386
  76.6187954  51.1651802  63.3589029  77.4913025  50.8360147  63.5748005
  76.0546923  50.8204556  64.0511322  77.2433996  38.1594896  73.0876160
  76.7691517  38.7275696  72.4804878  78.0956078  38.0244541  72.6731920
  94.6051979  50.8989239  85.7011795  94.4829464  50.5625868  86.5889645
  93.9870358  51.6266203  85.6335068  13.6028826  53.4291315  88.1521320
  13.3721876  52.5024414  88.0868626  13.9882970  53.5191965  89.0236664
  27.1785188  57.4620485  42.9395580  27.4114728  57.1702862  43.8209438
  26.9371867  58.3819866  43.0477524  27.3776031  30.6734681  68.9830208
  26.5718198  30.4933381  69.4672680  27.1011591  30.7227802  68.0679321
  99.9900246  57.4128628  68.6892176 100.6410122  58.0400991  69.0039062
 100.5065441  56.6956139  68.3218002  64.2788744  76.8973970  77.1724701
  63.4936666  76.8707609  77.7192497  64.9936008  77.0618296  77.7875853
  68.2682085  48.0636120  81.3416386  68.0356789  47.7355433  82.2102833
  68.9071894  47.4325562  81.0104275  75.5964756  41.6883802  72.9771042
  76.0790777  41.2708139  72.2636890  74.8056269  41.1579037  73.0739689
  89.8104286  34.2958879  77.6965094  89.8486805  35.2134252  77.4265242
  90.1809025  33.8131618  76.9576216  92.1438313  44.2286205  67.4062109
  92.2199154  45.1180983  67.0608521  92.7097893  44.2221832  68.1781483
  62.5338602  36.5584493  73.4033918  62.4404955  36.7702651  72.4746037
  63.4512568  36.7470384  73.6010218  91.8107891  38.3101416  65.3348446
  91.3480949  37.5054336  65.1011944  92.7100277  38.1631279  65.0416279
  71.2791157  43.4998322  85.3186131  70.6800413  42.7804089  85.5180359
  72.1505547  43.1072521  85.3705883  26.4465737  62.4661827  87.3649788
  26.0591149  62.1522903  86.5479183  26.0927439  61.8837309  88.0371284
 106.2294865  50.1781559  56.3478184 106.9766712  50.7002115  56.0555744
 106.6200733  49.4528484  56.8352652  73.6214972  32.1118116  74.3421459
  73.7654686  32.8754830  73.7832975  72.8171730  32.3132181  74.8203993
  89.1156673  49.5941734  73.7908697  88.4503841  49.4391823  74.4613934
  89.2762280  50.5371523  73.8262367  96.1340046  62.6985216  64.2515421
  96.1922932  61.7661572  64.0428829  95.3489494  62.9979467  63.7929964
   3.4697863 101.7232800   8.8450521   4.0186951 102.2726154   9.4046605
   4.0834811 101.1206913   8.4249383  80.2718163  29.2336893  80.2478218
  81.1502838  29.3596387  79.8891211  80.4117966  28.7423420  81.0572720
  98.9161873  29.8159099  73.7616873  98.8682175  30.6814909  74.1675186
  98.3412170  29.2684674  74.2964315  85.2611732  41.0483932  56.1970663
  84.5171356  40.4893351  55.9732676  84.9251938  41.9404602  56.1100435
  94.2474174  46.6922808  66.0931778  94.5757103  47.2831202  65.4154110
  95.0146580  46.1875868  66.3631010  90.6422901  36.9216037  61.9830608
  91.1956882  37.5031519  61.4617300  90.1556110  36.4106822  61.3362741
  86.1359119  48.8806200  62.3671961  86.4515018  49.6754646  62.7971506
  86.8741989  48.2732534  62.4148989  97.8213024  30.1141024  69.0892744
  98.3754730  29.6166754  69.6906805  97.4159718  29.4497037  68.5320377
 106.4481926  40.5680895  73.9332533 105.5103397  40.6748772  73.7742805
 106.8642616  41.1959457  73.3425665   0.9625175  60.3570795  70.3270531
   0.9522494  61.3139343  70.3035116   0.2058824  60.0964403  69.8018837
  12.2443068  80.3558636  74.9679136  13.0697322  80.4681492  74.4964314
  12.4324000  79.6842718  75.6235170  81.1023903  96.3169861  15.1411343
  81.9344521  96.7531681  14.9576533  81.0192966  96.3507748  16.0941207
  53.9345932  10.2267671  76.2051630  54.8537350   9.9716741  76.2847328
  53.9625740  11.1168158  75.8540726  82.9141140  34.9747252  66.9305801
  82.2093487  35.2714801  67.5063133  83.6385155  35.5740619  67.1102095
  82.5316238  38.2154608  74.3989944  82.6812172  37.3463106  74.7710609
  82.3514175  38.0519247  73.4732437  94.7165489  39.3555212  79.0281343
  95.5530834  39.2927694  79.4891310  94.1232204  39.7580791  79.6622753
  97.3689938  39.0359211  83.2804298  97.4582672  38.8825583  82.3398304
  96.7517757  39.7645330  83.3467865 107.8855515  56.1937523  64.0120983
 107.6090527  57.0367765  63.6528063 108.7529755  56.0457516  63.6353922
  90.0008678  61.4191389  60.4024029  89.1555309  61.8242645  60.5960751
  89.9355602  61.1557817  59.4844627 100.5798054  50.7410765  88.4146023
 100.4491711  50.4490089  89.3167400 100.4195976  49.9603271  87.8845024
  89.9311638  52.3461342  61.4955807  89.6133041  52.9895020  60.8621168
  90.3883839  52.8662872  62.1563530  59.4839096  13.1907260  17.7365065
  58.6776924  13.3157039  18.2371318  59.6363449  14.0355635  17.3131323
  77.5741673   4.6360609  14.1474736  77.2446680   4.9314064  14.9962568
  78.0509186   5.3899121  13.8001323 106.5161324  37.7742362  91.6770172
 106.3576698  38.6594200  92.0049953 105.6506920  37.4550319  91.4213657
  73.6280870  36.3379049  87.0664215  74.2165995  36.4463663  86.3193512
  72.8264999  36.7927074  86.8078804  90.4172611  51.2242985  91.4864826
  90.6328201  50.9726524  92.3845005  90.9262943  50.6246853  90.9409714
 102.3988438  35.0387454  56.3382196 101.4930820  35.3255439  56.4546919
 102.7480125  35.6173897  55.6603622 104.9602795  88.6706257  58.3573103
 105.1537800  88.3618546  59.2424393 105.2752209  87.9707336  57.7852964
  99.9466324  31.3766646  65.8176661  99.3550682  30.6558776  65.6014538
  99.5791626  32.1333408  65.3608942  75.0154161  58.5361338  28.7537718
  74.9495983  58.7043715  29.6937680  74.1243124  58.6570740  28.4258366
   1.5412509  41.9555473  57.6237249   1.4628322  41.5998745  58.5089254
   1.0139391  42.7542591  57.6389360 109.6699333  93.5915661  75.3080988
 109.7964668  93.4861279  76.2510252 109.5594311  92.6991749  74.9800014
  34.6200371 100.6105042  19.9273729  34.5784807  99.7295094  20.2993393
  34.3941045 100.4918766  19.0048146  50.5052805  19.9705470  19.7463584
  49.7736645  20.3647661  20.2212954  50.8185196  20.6664300  19.1685522
  83.0785751  69.7209024  58.3747292  82.5691223  68.9112043  58.3420038
  82.6233101  70.2645111  59.0177298  90.3181458  80.9458733  67.2292328
  91.1400318  81.3641071  67.4857712  90.2019501  80.2375793  67.8625154
 110.0776100  32.8931522  62.0200920 110.7717228  32.2677588  62.2282314
 109.3027592  32.5471377  62.4629402  63.0728483  82.4812126  43.3221531
  62.9714060  83.3197498  43.7724972  63.3010721  81.8627167  44.0161276
  33.7235713 104.3567371  10.6918502  33.2779288 103.7119102  10.1424491
  33.1173968 105.0964069  10.7326961 103.9903831  65.9683514  58.6450338
 104.2322254  66.2342834  59.5321798 103.2266903  65.4036903  58.7640572
  39.3991041  97.2412300  26.5180850  39.5494008  97.4115372  25.5882239
  39.6873975  96.3374424  26.6457105  95.0670433 101.5935612  56.3115358
  95.2778435 101.8323517  55.4088879  95.3794765 102.3322868  56.8339205
 110.2122498  91.0865021  57.9234457 110.7717037  90.8759880  58.6710644
 110.5909348  91.8863392  57.5586367  33.6997938  31.9529319  10.8205330
  33.6514616  31.0954523  11.2431717  32.7932239  32.2591043  10.7955897
 111.4830112  95.5826378  70.9478092 112.3933887  95.7850170  71.1634445
 111.2556267  94.8553848  71.5271425  74.4142056  89.4601345  76.8489265
  74.7426033  88.5765171  77.0150518  74.7567129  89.6842098  75.9836435
  45.1654959  17.3413837   0.8744122  45.0364208  16.4418173   0.5738281
  45.8098984  17.2685301   1.5784483  85.0676918  79.9478579  65.8828497
  84.4357967  79.3322802  65.5113649  85.9137344  79.5110369  65.7847261
  81.9734478  88.9914227  71.5243244  82.6291561  89.0802860  70.8326721
  81.8390560  89.8839378  71.8430519  16.1772203 102.6968288  14.6945798
  16.8671238 102.9167652  14.0685642  16.6224205 102.1892834  15.3731239
 104.9844837  75.8042765  69.4914389 104.9238110  74.8792648  69.2528963
 105.8617592  75.8989096  69.8624611 108.1879234  58.1785917  71.9295502
 107.2541142  58.3195877  71.7735100 108.6098003  58.4412956  71.1114788
  81.1648560  79.7384977  64.4632149  80.6464577  80.0754166  63.7324715
  82.0135784  80.1721859  64.3748140  20.9837842  69.2736530  50.6278944
  21.2665558  68.9138937  51.4686346  21.4004993  68.7117147  49.9745893
  87.1610737  68.4289360  82.9889965  87.9129505  68.3389044  83.5744953
  87.5370502  68.3950043  82.1093845  97.9890728  79.9558306  52.7390957
  97.8659058  79.2651796  53.3902979  97.6419163  80.7438469  53.1571293
  87.4805832  34.9782896  28.0702090  88.0094337  34.2049980  27.8738117
  87.0125675  35.1615810  27.2555947  99.8954678  61.4466286  33.0335617
 100.8304405  61.2975311  33.1743598  99.6754646  62.1648884  33.6267996
 103.4038544  49.6658468  76.9042587 103.5415649  49.1943216  76.0827160
 104.1106796  49.3642282  77.4749231 109.5667934  51.7332792  76.3949585
 109.0000725  50.9684277  76.2946224 109.8143578  51.7283010  77.3195744
 105.2274036  43.5675859  79.3851185 104.4505978  43.0991173  79.6906328
 104.8813725  44.2814255  78.8494635  82.4989510  75.8914185  73.4724665
  81.6985607  75.7363939  73.9740324  83.1054020  75.2150440  73.7740850
 104.0530109  75.5250120  57.2651672 104.0378189  75.6135368  56.3121891
 103.2550716  75.0390053  57.4733114   0.2645857  58.2516909  60.4324245
   0.8974726  58.7503433  60.9491730  -0.2479952  57.7698469  61.0815144
  87.3389912  92.2168350  90.5596828  87.7810383  92.8704929  91.1014938
  87.8793430  92.1534824  89.7721386   9.0369016  98.9966488   9.7436684
   9.2289418  99.9336720   9.7071099   8.3629799  98.8640881   9.0769684
  65.1882744  74.6133423  47.2810793  66.0659027  74.9519968  47.1041393
  64.7724152  74.5643425  46.4203310   0.7105701  84.8765945  64.9802923
   1.1739260  84.9330902  65.8159590   1.2592572  85.3674316  64.3685341
  66.1643362   9.8895288  27.0811963  66.9055986   9.8871410  27.6868010
  66.5321255   9.5859307  26.2512612  96.6956329  48.3647442  88.8432121
  96.8943977  48.6894321  87.9649734  97.5509548  48.1671000  89.2247677
 103.4626102  49.5760059  55.8047438 102.9900646  49.9752188  56.5351915
 104.3834114  49.7691059  55.9810400  17.6864624   6.9445008  70.2143908
  17.8824544   6.5418047  71.0603523  16.9457448   7.5244623  70.3910637
  89.0093708  85.7264900  76.9476318  88.6289215  84.8514175  76.8718290
  89.7625828  85.6108379  77.5268793  91.0191154  82.8345871  90.6863594
  90.1464272  83.0791473  90.9943104  91.5983295  83.0398941  91.4202595
  93.4277534  22.3609209  75.3989124  93.8404083  21.7979598  74.7439194
  92.6817703  22.7512240  74.9434853  84.2009354  76.5728855  35.5092812
  84.7235966  75.7749367  35.5888748  83.7468052  76.4792109  34.6718907
  80.5810547  43.1829977  68.7068081  80.7732201  44.0198326  68.2837057
  79.9225760  42.7756929  68.1440163  87.6937580   9.9910611   7.8759962
  87.3070717  10.7577848   8.2988900  88.6280060  10.1925409   7.8228426
 106.2724018  64.6088552  62.9140425 105.6996346  64.0125847  62.4317169
 106.7980576  64.0364170  63.4728146  86.9470406  66.2386084  62.0939398
  86.2047100  65.6856632  61.8501282  86.8864346  66.9929981  61.5078926
 100.5406094  62.7490139  55.0504875 100.2923965  63.4521866  55.6506300
 101.4919090  62.6859474  55.1358175 108.0769062  26.6005349  32.2140503
 108.9979553  26.4215255  32.4033856 107.7057552  26.8626571  33.0565310
 100.6168556  93.2122803  79.4259262 100.4032326  93.7440968  78.6592674
 100.2725220  92.3436260  79.2183447   3.6314899  78.8981390  55.5273294
   3.9154729  78.7666798  54.6227264   4.1787302  78.3024645  56.0391235
 111.6036646  53.7164688  78.4663248 112.1688028  54.2157221  79.0559006
 110.9428903  53.3281040  79.0397215  34.6997905  97.6809692   1.6014069
  35.5226398  98.1400204   1.4328130  34.1813612  98.2997513   2.1157780
  93.4148216  87.0331860  56.4124727  94.0246964  87.2923088  57.1032190
  92.9784012  86.2544823  56.7580175  36.3764381  89.0594292  37.8463268
  37.3153138  89.0902138  38.0301714  36.1003494  88.1960392  38.1538510
 106.0684395  62.9531288  58.0520582 105.6304455  62.4920464  57.3366594
 105.3874874  63.5086870  58.4313726 110.6363201  66.4542055  67.0374441
 111.5804005  66.3307095  67.1359253 110.4706287  67.3274183  67.3927975
  65.8464670  10.1076114  50.7980442  66.3281584  10.1423585  51.6244793
  66.4588642  10.4541588  50.1491213   9.8572493  93.9303303   6.9795156
   9.9311811  93.7689686   7.9201156   9.6201414  94.8553181   6.9130945
 106.0070705  68.8756609  73.9193296 106.3334656  68.1458139  73.3929920
 106.7832947  69.4050837  74.1021347  97.1865368  54.5140743  49.9393034
  97.7723980  53.7591219  49.8840570  97.3414326  54.9973392  49.1277027
 106.2188911  82.5044346  58.7127399 105.8550644  83.3663559  58.5103798
 105.7518578  81.9047165  58.1309700 107.5069618  69.5080900  68.6478519
 107.6640034  70.4078865  68.9341116 107.0588970  69.5990372  67.8069067
  20.9647059  91.8293762   8.5567528  21.8276954  92.2421646   8.5897440
  20.9496260  91.3727283   7.7156383  10.8971047  82.2748184  76.1096525
  10.5379903  81.9044018  76.9159174  11.3552070  81.5444469  75.6937981
  73.7375832   4.8600286  45.3870296  73.2135487   4.5178044  46.1112547
  74.2105913   4.0980050  45.0526428  78.8768768  59.4648695  73.6668825
  78.2817841  58.7436342  73.4621477  78.6422968  59.7232866  74.5581865
  67.8589392  22.4688697  19.5985210  68.3779716  23.2689047  19.6808434
  66.9581079  22.7769375  19.4993556  12.5381720  53.2629395  84.6026134
  12.0619226  53.1834126  85.4291153  13.3258295  52.7337313  84.7281742
  12.3267055  43.3329391  64.1825962  12.9414976  43.9284086  64.6111679
  12.8819442  42.6695490  63.7728977  76.9654417  77.1419239  75.6499577
  76.0342312  76.9248247  75.6941509  77.1160126  77.3650980  74.7313976
 106.7315102  28.5473418  64.9921942 106.8909454  29.4638467  65.2176571
 106.6496372  28.1037521  65.8364439  25.6984162  49.9261522  81.9623947
  26.5311098  49.4942141  82.1528625  25.7202339  50.7287788  82.4834919
 102.1083260  98.9939690  53.6522722 102.7522850  99.0528584  52.9465246
 102.3472500  99.6990395  54.2539597  58.1547737  77.1920872  90.3245068
  58.0527687  77.4140501  89.3990040  57.4530697  76.5649128  90.4991436
 102.2919846  73.4378242  52.7388668 102.6886082  72.6435852  52.3809338
 102.1501827  73.2386112  53.6643028  81.3659000  37.7065563  56.7253685
  82.1686554  37.5026870  57.2052193  81.5495872  38.5416317  56.2950897
  16.3262618  97.3635578  12.5448561  16.9767046  97.1294594  11.8827713
  15.8772147  96.5412331  12.7407324 102.7871799  70.7634735  84.4970894
 103.4992409  70.1280069  84.4236755 102.7146530  71.1440945  83.6218166
   5.1466769  86.4535046  66.5499401   4.5047843  86.7390633  67.2000647
   5.0638342  87.0870495  65.8372164  43.2440186  83.9276791  80.0046825
  43.2472944  83.0246735  79.6871948  42.8227425  83.8783455  80.8627701
  93.6661053  33.7173009  80.9959316  93.2698345  32.8842068  80.7406902
  94.5834541  33.6361074  80.7349491  73.8968277   1.2765051   2.6244539
  73.3949995   0.9334840   1.8850367  73.6113310   0.7511961   3.3719659
 103.1389332  83.6078262  90.5232334 103.8732147  84.2187786  90.5849266
 102.8236580  83.5206509  91.4228058 110.4702187  93.3429527  64.6574831
 111.2297058  92.8744793  64.3111372 110.6534576  94.2645073  64.4747543
 103.2066631  30.3481913  86.9281864 102.3479271  30.2580738  86.5150356
 103.3123493  31.2906623  87.0578575  96.5259743 100.6270981  65.9072924
  97.0945358 100.1681042  65.2889872  96.9968414 101.4351463  66.1112213
   9.7312558  96.0368252  79.6549606   9.0335077  96.6874313  79.5768738
  10.4658651  96.5180016  80.0358200  81.3689899  58.9289379  56.2098742
  81.7417908  59.6797752  56.6719246  80.4223061  59.0580702  56.2676716
  17.8993273  79.9939823   6.1260241  17.3627007  79.2768240   6.4635879
  18.6440408  80.0386906   6.7257202   6.2747830  45.4617357  59.6476507
   6.0232538  45.5502033  60.5669641   5.8773279  44.6367741  59.3689060
  81.8567467  55.1782513  61.1671686  81.2757015  55.7759190  61.6377115
  82.5737381  55.0102663  61.7786694  20.0635409  37.8635406  65.4933262
  20.4701996  37.0022273  65.3984499  20.1453447  38.2636976  64.6276379
   5.9872866  39.0533137  67.5698948   5.2424902  39.5991683  67.8219891
   5.5920285  38.2464099  67.2398806  82.7567577  61.0939980  81.4273548
  82.3867607  61.8390942  80.9538937  82.1771812  60.3627682  81.2137413
  75.4295778  22.4654889   1.8510860  74.8676682  22.2487903   2.5950846
  75.3549099  23.4157276   1.7633168  88.2315731  95.6124401  73.8498592
  88.2604313  96.1589622  74.6351719  88.0562687  96.2266350  73.1369305
  75.4093885   2.9822490  20.5911756  74.9380970   2.1685329  20.4123354
  74.7436571   3.6659673  20.5165863  98.2449150  63.3829355  89.2381287
  98.1373692  64.2335653  88.8125801  97.9825306  63.5344839  90.1461029
  44.1128922  22.1745300   5.3074849  44.8459673  22.7745128   5.1701605
  44.3281126  21.4078808   4.7762948  93.6139584  42.4987030  88.4376812
  93.4169865  41.7225361  87.9132748  94.5357513  42.3993158  88.6757183
  87.0069408  62.9971457  68.0269289  86.9545555  63.7857962  68.5668564
  87.8078175  63.1101131  67.5150013  91.1116695  33.4478569  22.1652007
  90.4009247  33.5192657  22.8023601  91.4308548  34.3442321  22.0609784
  97.4895191  86.7074013  89.4355583  96.6522884  87.1542263  89.3105602
  97.3996544  86.2615395  90.2777958 105.8682728 105.4183197  65.2772808
 105.7987213 106.3695717  65.1965141 105.5489159 105.0828362  64.4396114
  34.8952889  31.1676097   0.0021587  34.2063975  30.5927014   0.3355391
  34.6124554  32.0482254   0.2486403  98.0365086  79.0823650  58.2839584
  97.2425842  79.5793629  58.0867004  97.8075027  78.5604858  59.0530014
  96.9397259  52.4551296  57.0253468  97.3260689  53.0319738  56.3663864
  97.6881981  52.1216106  57.5201130  99.8135948  56.4080477  55.0294018
 100.6516743  56.8474770  55.1734638  99.1931057  56.8906498  55.5755901
  61.8979883  69.8074865  81.5517616  61.7698574  69.9577904  82.4883652
  62.7949047  69.4804811  81.4821625  51.8631315  37.0493960   7.4993223
  52.4437809  36.4855886   6.9882452  52.2489738  37.9220986   7.4235290
  39.1642594  59.2856693  44.2608023  39.5855260  59.8440742  44.9142170
  38.7911391  58.5641146  44.7671318 109.2984581  43.4322357   7.1780992
 110.0768471  43.6425829   7.6939422 108.8157558  44.2571497   7.1256578
 110.4756927 103.4269524  77.7641535 110.9025764 103.3403206  78.6164999
 109.6967411 102.8744602  77.8291464  94.6919918  55.1759720  90.1988697
  94.7604465  54.2854738  90.5431843  93.7832355  55.4273415  90.3638172
  79.6648455  95.1110172  59.3795395  78.7186050  94.9910545  59.2991066
  79.9880648  94.2649460  59.6892548  75.2543545  58.7077332  72.3328829
  74.3358183  58.9430475  72.4638128  75.4571390  59.0163803  71.4497900
  92.4267197  60.2062082  43.2230234  91.6323471  60.5804586  43.6040115
  92.4704838  60.5817223  42.3436451  70.6712675  83.6463928  13.7942672
  70.8555412  82.9855442  13.1267750  69.7999668  83.9746571  13.5721993
   5.5225337  72.5285578  59.6322489   6.1550683  72.4437141  60.3456450
   4.9354619  73.2297993  59.9148130   7.7507925  82.5434685  86.7616558
   7.5311494  83.1345367  86.0414982   8.5792232  82.8798294  87.1034050
 101.2144756  89.1532993  81.0015583 101.7423058  89.8285198  81.4278126
 101.8475342  88.6275291  80.5126381  62.2517061  76.5062332  79.0787172
  61.9072628  76.3481665  78.1997347  61.9038296  75.7865524  79.6052837
  62.7110052  67.1007872  52.8799677  63.2740164  66.3297558  52.8109455
  62.3780966  67.2344828  51.9925404  22.9974318 102.3016834   9.0420616
  23.4700322 102.0019722   8.2654959  22.1059227 101.9749641   8.9208317
  87.3313141  20.6348038  18.2986963  87.6426601  21.4083624  17.8286886
  87.4039650  19.9229193  17.6629508  78.1270885  73.1343269  52.5366974
  77.6530743  72.3360205  52.7696085  78.1182718  73.1475163  51.5796280
  21.5971613  89.0670681  13.4931123  21.8296885  88.4742069  14.2077327
  22.0307493  88.6969662  12.7241766  93.6360550  61.9453478  57.0676184
  93.0530262  61.3760662  56.5653992  93.2644176  62.8212023  56.9627333
 109.6648979  84.9187088  80.6052971 108.7300205  84.9100113  80.3999329
 109.7148800  84.6027756  81.5074730 107.5564098  98.1010437  59.5986605
 108.4034634  98.5461998  59.6224689 107.7429867  97.2144985  59.9076223
  11.9864249  93.0035782   1.3134524  12.3432982  92.8601551   0.4369231
  11.8350661  92.1232319   1.6574249  28.2867670  79.8843288   3.2163170
  29.2166638  79.7080755   3.3593553  28.2550359  80.3311729   2.3704123
   1.1837767  54.1979027  31.4334202   1.3495450  53.4700108  32.0325255
   0.3800743  54.6005392  31.7623210  94.4101334 100.4981995  21.8890023
  95.3560352 100.4818630  22.0347261  94.1972256  99.6114254  21.5982652
  96.0328579  68.7512255  73.3217716  96.9278812  68.8463306  73.6475325
  96.0896111  68.9822531  72.3946047 108.1915569  41.1486149  56.4064837
 108.7323570  41.8038845  56.8473673 107.4337006  41.6387415  56.0876369
  69.3925619  19.9762201   5.2458036  68.5725784  20.2821040   5.6334800
  69.1895151  19.1010761   4.9154633  84.7230721  59.0578604  81.1757183
  84.1800976  59.8400402  81.2737465  85.5302429  59.3757677  80.7711983
  94.1388226  55.1755095  69.6909904  93.5761356  54.4705200  70.0113010
  94.7669983  55.3207636  70.3984690  91.8740082  60.2387094  55.7715702
  91.2381554  60.2320337  56.4870262  91.4436626  59.7584724  55.0641775
 104.7442627 103.3743668  90.9259510 104.7785759 102.7567387  90.1954746
 105.5926800 103.2804394  91.3590813  55.0202656  81.7043304  10.4065382
  54.4734240  82.4858665  10.3265500  54.4139194  80.9740734  10.2828634
  12.6516902  88.6645412  61.5585709  12.9144323  89.5849228  61.5483189
  11.7528844  88.6756992  61.8875933  30.5971646 100.9012032   7.8995341
  30.3912425 101.3695049   7.0905101  29.7438335 100.6676292   8.2649148
 103.8357449 101.8632221   7.9527736 103.3711052 101.2640572   7.3685229
 104.4353580 102.3402786   7.3790902  24.2051005  31.5559435   4.3116373
  25.1039410  31.8654728   4.1998011  23.7409234  32.3010492   4.6931985
  48.8765574  34.5626140  26.8782711  48.1162119  34.0943599  26.5335298
  48.5578346  35.4505515  27.0401859  84.8862171  66.4778757  84.4504547
  84.1096783  67.0371771  84.4305706  85.6089401  67.0633745  84.2244244
  51.8265104  97.0614338   5.0091898  51.6893625  97.5396442   5.8269489
  51.2852859  97.5226021   4.3683827  23.5733390  96.2057686   2.6319206
  22.7512503  96.6723728   2.7825347  24.2470145  96.7879295   2.9833314
  91.4645100  70.8116961  31.1844015  92.2720242  70.8863163  30.6758881
  91.5661335  69.9973679  31.6771221  89.1500854  70.6979752  43.5813665
  89.8675442  71.1612415  44.0136337  89.5491695  70.3130865  42.8010941
  92.9369831  61.9200468  72.9883480  93.0912590  62.5891161  72.3214340
  93.7374115  61.3951159  72.9906368  94.8489475  47.6623201  90.9042168
  94.4562817  46.7901134  90.8682919  95.3631496  47.7268267  90.0994396
  83.6321545  58.4617329  69.8599195  82.7752304  58.1128645  69.6145439
  84.1579723  58.3874559  69.0635300  72.7842712  14.4463432   5.7358360
  72.3983622  15.3183687   5.6529015  72.0357990  13.8649774   5.8701348
  87.6385212  68.9516544  69.0495872  87.4763680  68.5038900  68.2192564
  88.5922146  69.0077019  69.1092300   1.0156512  66.3664341  67.2189188
   1.2766311  67.2430038  67.5013113   1.4765406  66.2345839  66.3904047
   3.9847413  56.1644840  85.8220005   4.1768074  55.6725454  85.0236702
   4.8325890  56.2560177  86.2567520   6.2171841  43.6822653  76.5882540
   5.2617246  43.7194109  76.5440989   6.5113139  44.3805361  76.0033321
 102.8316116  92.1364689  63.2731295 103.0333710  92.8258705  62.6404810
 101.8807602  92.0376778  63.2246256  78.9455986  58.7845898  57.6810741
  78.0898666  58.3728456  57.5609875  78.7802744  59.5089960  58.2845068
   0.7299692  26.2707186  62.9843140   0.8681089  25.3258801  62.9177904
   1.6037828  26.6303706  63.1370640  89.4375420  86.0484695  54.8540926
  89.3980503  85.1330662  55.1310539  89.6408081  86.0074139  53.9196253
   8.2641613  38.7232900  73.3695793   8.2448328  39.6575809  73.1623173
   7.9464781  38.2949924  72.5746775  73.3455944  34.1855478  16.3643444
  73.5388851  35.1224208  16.3981152  72.6310349  34.1110635  15.7318151
  75.0925970 105.8077812  58.3441448  74.2633295 105.5005360  57.9778862
  75.1144361 106.7420292  58.1369400  99.3572712 104.6377373  41.5922070
  99.7491550 105.4895401  41.7848301  98.7300777 104.8156357  40.8913422
  23.8258672 100.6112576  19.5401251  23.4803915 100.4242039  20.4129863
  24.6436882 100.1159191  19.4950056 104.2407990  64.8214912  69.8158884
 104.6491909  65.5868721  70.2204084 103.8647842  65.1534605  69.0006351
  21.0772753  70.0043774  72.8279781  20.6503916  70.6722403  72.2913599
  21.8546367  69.7560215  72.3277187  61.2544394  72.3864269  65.9519148
  61.7693901  72.1363497  65.1847649  61.6768265  71.9336939  66.6818762
  77.4463749   8.2080662  32.6560092  76.5010881   8.0605853  32.6257086
  77.7946854   7.6772189  31.9396901 100.1725864  62.1858549  43.9523935
  99.4133949  61.8944693  44.4573355  99.8966312  63.0151272  43.5620165
  45.6110525   2.9183972  68.5835409  46.3661194   2.3368576  68.6725140
  44.8757315   2.3311140  68.4085131  13.9534438  42.1584177  90.7686806
  13.8504052  41.2139702  90.6519127  13.0788600  42.5156260  90.6146240
   2.7754204 105.9156226  86.5578556   3.3276503 106.6261732  86.2316704
   2.2655814 105.6395786  85.7962132 105.1129436  61.9232178  36.4270186
 105.4844570  62.6547861  36.9199920 104.2583084  62.2404957  36.1351871
  75.0750971  83.7231731  72.7125168  74.3074656  83.9906406  72.2071123
  74.8192549  82.8935719  73.1156778  23.2765746  55.3767920  59.0399075
  22.4106908  55.4491520  58.6383581  23.6399722  54.5671082  58.6813307
 108.5559273  64.7773409  13.8718688 109.0880203  65.0435305  14.6217096
 108.8989067  65.2908087  13.1404674  66.4473772  25.3017402   3.9176464
  66.0058117  25.9945369   3.4264413  65.7557631  24.9060941   4.4480836
   8.7524480  76.1753798  78.6217976   8.3245879  75.8833790  77.8168726
   8.8619244  77.1192265  78.5060310 102.1714973  86.3316536  73.7986040
 101.9911671  87.2637177  73.6762762 102.2450542  86.2243748  74.7469234
 110.6830883  98.1735706  39.5657444 110.5068874  97.2459412  39.7228885
 111.2067890  98.1855297  38.7646055 111.5818310  14.8362648  69.1361523
 110.8395863  14.9090016  69.7361565 112.1654892  14.2023301  69.5529318
   2.1122842  60.7499886  59.4184303   2.3733127  61.6708899  59.4245720
   1.8366154  60.5731726  60.3178596  85.1190090  92.1526814  82.7374649
  84.5564175  91.5303898  83.1984043  85.1162434  91.8507767  81.8291283
   0.0031499  67.2617340  75.7182932   0.6043494  66.5428925  75.9133816
   0.5058024  68.0532789  75.9107161  11.9335949  59.3422365  66.4482450
  11.5388751  59.6652222  65.6382418  11.1989188  59.2592001  67.0561838
  29.5628071  55.1085567  31.4928508  28.7881374  55.1856661  30.9359193
  30.2993393  55.1200676  30.8816075   3.6660624  94.4051743  75.8148623
   4.4872695  94.3532276  75.3258324   3.0327988  93.9380455  75.2698851
  84.3087563  11.8936746   0.2267727  84.5516160  12.4590604   0.9599766
  83.8465503  11.1603086   0.6326946  82.3414135  69.5175934  77.3310757
  82.7350616  69.8910332  76.5425205  81.4345360  69.8233747  77.3139095
  99.9077606  83.5226631  46.5202236  99.3870258  82.7528000  46.2913609
 100.6085587  83.1812954  47.0757341 102.6643753  18.3829784  83.4761047
 103.3520985  18.7873542  82.9472065 102.1719646  19.1216516  83.8340473
  96.8428326  51.5406752  60.5543756  96.4836025  50.8725834  59.9705553
  97.6311874  51.1399221  60.9205914   7.2825348  86.6170216  73.4502363
   7.4412858  87.4584675  73.0224562   7.9524153  86.5647602  74.1319704
  96.8191719  52.3539972   9.5910549  97.7472210  52.1387434   9.6838790
  96.7402649  52.6946306   8.7000018   8.9097023  93.1766510  53.8075161
   9.7621256  92.7420616  53.8347578   8.3582491  92.6593304  54.3944645
  51.2962866  21.5459895  67.5288391  51.8505526  21.0223842  66.9501686
  50.9586191  20.9192562  68.1686926  17.9271698  19.3508983  61.6473484
  17.0752454  19.2800653  61.2167215  18.2692432  20.1986480  61.3635588
  90.2306271  52.8744745  64.6219206  89.3275738  52.6513529  64.8476171
  90.1712322  53.7455702  64.2296171 108.7572670  42.2980356  22.3917651
 109.6126747  42.6223469  22.6734257 108.5312462  42.8423309  21.6375208
   6.7398429   5.9335500  60.8154440   7.3100835   5.2855599  61.2291670
   5.9213912   5.8823186  61.3091516 111.9399834  45.3047228  38.2374096
 112.7478218  45.7106209  37.9229784 111.3108730  45.4435778  37.5294733
  28.6026907  14.6752214  76.6531277  28.6838293  14.5945966  75.7027864
  29.5054364  14.6760464  76.9713736  60.4541349  17.5526035  25.6277204
  60.2606964  16.7529786  26.1170173  59.7142410  18.1311834  25.8121896
  79.3616724  50.9224129  84.6133804  79.4102097  50.8230448  83.6625957
  80.2750397  50.9608221  84.8971272  27.1451926   7.2953868  19.9571586
  27.5282383   6.9703794  19.1423714  27.0192671   6.5115881  20.4919815
  56.0957241  29.8415947  21.8923831  56.8613386  30.3171182  21.5699816
  55.5373335  30.5181694  22.2753716  84.6181583  87.7848434  83.5129642
  85.2010727  87.0540237  83.3072090  83.9076996  87.3896313  84.0182209
  24.9727225  62.3985529  54.0568447  24.4007826  61.7424631  54.4551754
  25.5767870  62.6463604  54.7567940  39.9543309  28.7092972  49.0554523
  39.1025066  28.8113904  48.6309481  40.2207708  29.6019316  49.2755508
 100.0448895  98.0543518  66.9546509 100.8656883  98.2163143  66.4895821
  99.6680927  97.2910976  66.5168142 107.3699760  81.2274265  63.1675863
 106.7664242  81.4973450  63.8597584 108.0904388  80.8004379  63.6311007
  98.5028934  68.9166403  56.6579580  97.6665783  69.0772009  56.2208939
  98.4785652  69.4757986  57.4344778 107.5298786  63.9634514  84.8190403
 107.9783249  64.0069580  83.9745045 106.8997955  63.2498264  84.7191715
  80.4729176  52.7886105   6.1244434  80.7058907  53.7138033   6.0471553
  80.1690006  52.5443172   5.2502656  79.5000315  77.2499466  65.5350971
  80.1276207  77.7802849  65.0440741  78.9797926  77.8868389  66.0249472
  50.0039721   6.3636035  76.7227221  50.5662441   6.8703449  76.1368084
  50.6053686   5.9860438  77.3645973  49.1364670  30.1343393  22.7042055
  49.4765186  30.8580089  23.2304192  49.0556479  30.4969692  21.8220496
  82.1091461  65.6578350  81.1518955  81.7602730  65.8743334  82.0165634
  82.8313732  66.2728977  81.0241508  79.2926311  91.7013168  78.7632561
  79.8231316  91.4815044  77.9974365  78.4166622  91.8583298  78.4107494
  11.1975622   2.7264947  56.3459110  10.2479851   2.7591226  56.4619780
  11.4373827   1.8310466  56.5844297  80.4901028 100.0147724  91.2762260
  79.6162224  99.7144032  91.0265541  81.0640526  99.6816254  90.5864239
 112.3550046  93.1518364  76.8222952 111.8794557  93.8508511  77.2711515
 112.5167702  93.4975719  75.9444952  15.0837576  43.2664633  56.7517042
  15.5713093  43.6928511  56.0469198  15.6418955  43.3654881  57.5230074
  15.5095756  51.5481329  37.9477954  15.0738132  50.9235525  38.5276580
  14.9112439  52.2941303  37.9063082   3.2017997  92.0874596  74.2532110
   2.5420809  91.5718937  73.7893295   3.4405473  91.5482521  75.0071907
 106.9959068  84.5928192  40.5590153 106.5931511  85.4445648  40.3900146
 107.5791454  84.4514751  39.8133039  83.9423275  66.6968822  47.8238297
  84.5731068  66.1086607  47.4086761  84.0866280  67.5419140  47.3980045
 106.8717480  54.5265532  37.5627470 106.5225220  55.2869177  37.0978642
 106.5735626  53.7749195  37.0505309  97.6253891  93.4794044  51.0282516
  97.1013165  92.8177929  51.4797449  98.4946918  93.0858803  50.9528446
  98.3021259  42.0432520  76.7937040  97.8205872  42.6724958  77.3307419
  97.9988098  42.2086668  75.9010267  90.5777454  88.1641865  66.1304569
  91.0689163  88.9653111  66.3126183  90.2109528  88.3014870  65.2570486
  66.3040686  50.1453161  18.2552385  65.7266712  50.4448748  17.5530195
  66.2151670  50.8099270  18.9383340  48.9571333  29.0460181   6.3281488
  48.9003134  29.4847035   5.4792917  48.1162691  28.5986638   6.4233232
  15.8197510  91.7999172  79.8850870  16.7238307  91.5556526  80.0830841
  15.8964062  92.5965691  79.3600035   7.6055485  63.4318542  77.3452950
   7.4331707  64.0718079  76.6546583   6.7380470  63.1896734  77.6693630
   8.9193487  52.7065992  82.8153610   9.1187364  52.1175957  83.5430622
   9.7754121  52.9522467  82.4645805   0.4678409  84.1089153  59.5422411
   0.4124802  83.2271957  59.9106598  -0.3772645  84.5082188  59.7486067
  66.1263180  81.1161709  87.0404053  66.9703150  81.4951992  86.7949867
  65.8259296  80.6681728  86.2496471   8.5813671  85.3385258   1.7818147
   9.3230724  85.2629089   1.1814916   7.8254765  85.4803085   1.2119405
   5.6096560  77.6103783  69.0995502   5.4633749  78.0380821  68.2558060
   5.6254232  78.3282995  69.7324562   5.2814054  88.1357288  51.8645430
   5.1205403  87.5413036  52.5973511   4.4080898  88.3812141  51.5591097
  74.8816490  97.6099491  55.0173903  75.6551552  97.0518684  55.0977516
  75.1570511  98.3187485  54.4360256 104.1109943  74.7077656  76.7463923
 103.3283043  74.3719196  77.1832323 104.0248108  74.4123173  75.8400154
  31.3636065  79.8695660  63.2240057  30.9524751  79.0564346  62.9307175
  32.1577835  79.9409676  62.6944685  86.9957733  69.4451237  86.2641525
  86.8530750  68.5403490  86.5420914  86.5808868  69.4994974  85.4032612
  99.8454571  81.4879131  71.6572237  99.3686390  80.9554386  71.0205555
 100.7517529  81.1873817  71.5899134  12.1927500  60.5291510  75.6909943
  12.7160215  60.5477524  74.8896980  11.4605689  61.1193562  75.5126715
  96.2952900  69.9457550  46.3165522  95.5035019  69.7586632  45.8122587
  97.0004177  69.5345449  45.8166218  82.5663280  40.5414343  19.9556196
  83.4476280  40.8619261  20.1475263  82.6796532  39.6023607  19.8088872
 101.2256432  88.4187031  53.8285732 102.0909309  88.5361958  54.2206192
 101.0479355  87.4822712  53.9166594   2.2369984 103.6182880  70.5675030
   1.6660307 102.8705215  70.7437944   2.8187516 103.6596203  71.3265038
   5.0879407  79.5601797  72.7758837   5.0835496  79.3115425  73.7002182
   5.5610657  80.3919792  72.7538490  18.1886327   3.1065395  32.3105526
  17.9153430   2.4500461  31.6698027  17.5086415   3.0817544  32.9837751
  84.1236019  87.5473499  59.3648911  83.8217640  86.9757080  58.6589527
  84.0275955  88.4326553  59.0138245  98.3763790 103.6230087  58.0687857
  98.1267643 104.2842674  58.7142754  97.9152679 102.8314114  58.3462381
 100.8437538  83.9878654  81.0591793 101.6343307  83.4523201  81.1255932
 101.0019207  84.7229099  81.6515732 101.8950653  86.5024090  55.9342289
 102.8200817  86.4046764  56.1600971 101.6665459  87.3817253  56.2355614
  98.4951687  79.9508715  61.5316391  97.6772118  79.4818115  61.3668442
  98.8680935  79.5192623  62.3003197  56.1644602  25.0658703   6.7400157
  56.5962219  24.2621756   6.4503849  55.6457663  25.3444529   5.9853089
   8.1596440  79.7755527  54.0171671   9.0119529  79.3403435  53.9972353
   7.5307846  79.0794992  53.8266897  12.2880864  88.0860519  33.1581450
  12.9151189  88.6218739  33.6438942  12.3074818  87.2363472  33.5984397
   6.2598890  86.4272118  89.9891663   5.3609300  86.6137123  89.7183895
   6.7413098  86.3262272  89.1680336  24.2680383  55.3343630  67.9973698
  23.5927439  54.6559858  68.0008173  23.8034511  56.1360121  68.2376671
  69.8162985  69.0474749  81.1707020  70.6885862  69.4415951  81.1740494
  69.5062494  69.1443348  82.0711040  96.1367226  98.6517906  84.7846508
  96.3235760  98.0006981  85.4609585  96.2174129  98.1712627  83.9607525
   9.9777967  77.6071072  64.6092987  10.4181182  76.9463825  65.1438951
  10.1118720  78.4274626  65.0839233  91.5291119  77.0206213  46.3986588
  92.4090672  76.6609573  46.5106916  91.6590023  77.8140783  45.8792496
  64.1724157  68.8642168  66.7105150  63.5318899  68.4633684  66.1229086
  64.5884180  69.5455885  66.1823988   3.0926925 102.1918011  65.4475784
   4.0265101 102.0842171  65.6282520   3.0595544 102.5366974  64.5552874
  65.0914431  33.0101275  28.4599543  65.4595947  32.2298670  28.8745546
  64.5630598  33.4189081  29.1454768  64.3687153   2.0293328  70.9097862
  65.2064562   2.0769316  70.4491758  63.7255096   1.8636104  70.2205467
  10.2179646  97.2723103  40.5041599   9.4365543  96.7587948  40.2993774
   9.9678546  98.1760311  40.3118992 111.1036777  88.8682079  70.2969360
 112.0585632  88.9289951  70.3241587 110.8994675  88.0795193  70.7994270
 109.9832153  22.3938131  72.0039606 109.5033455  21.9364190  72.6944304
 110.4228973  21.6974092  71.5161753 103.3800030  99.3931198  61.3897848
 103.8803005  99.0920734  60.6312990 104.0429306  99.5857525  62.0528555
  79.2478180  92.9990768  63.4867239  80.0384521  92.5293541  63.7522364
  78.5574198  92.6402092  64.0442085  26.6416717  13.5714471  88.6661625
  27.0656705  12.7188838  88.5682297  25.9322047  13.4159052  89.2896175
 103.7985478 105.8698530  68.2864237 104.6506248 106.2974406  68.2006025
 103.9982043 104.9337627  68.2762003   4.6090713  86.2252522  72.8904152
   5.5048585  86.2561321  73.2263422   4.3298161  85.3212929  73.0356932
 106.6367149  68.1747103  81.8839645 107.1402550  68.0047512  82.6800728
 105.7237530  68.0659199  82.1502113  48.7304592  30.2774286  11.2375796
  49.6841240  30.2497792  11.1601305  48.4238243  29.5653415  10.6762099
  25.3889894  77.0767307  43.4366512  25.8808756  77.8552246  43.1754637
  24.7415805  77.4012899  44.0625525  50.9397554  45.9906912  20.5306935
  50.7265043  46.4988470  21.3133359  50.7440710  45.0853777  20.7722449
 111.3340569  80.0308132  78.7773705 110.7315731  79.4915962  78.2650328
 110.8066368  80.7787037  79.0579462  21.7095065  45.6352425  84.4465256
  20.8047676  45.4983234  84.1655731  21.7925382  46.5849686  84.5323086
  66.8988419  68.3644962  86.7872047  67.2147751  69.2384386  86.5577602
  67.0380306  68.2999039  87.7320290  16.5340507  63.5090971  73.9440775
  16.0178626  64.2529774  73.6335564  16.4998066  62.8773117  73.2258129
  15.8049095   3.5976723  82.9391289  15.8301306   4.1851813  82.1838665
  15.9366834   2.7251062  82.5683212 103.2830143  57.4932623  76.5684080
 103.4963512  57.4346733  75.6371260 103.4142113  56.6051579  76.9005108
 107.6020530  70.6222863  92.0947759 106.7446950  70.3544719  91.7639455
 107.7156356  71.5156014  91.7702475  67.1686888   1.2650976  64.9953890
  66.8024445   0.5177609  65.4682350  66.7904377   2.0307706  65.4277134
  89.5982742  75.5352545  68.0194855  89.6194363  75.5870962  67.0639229
  88.8331318  74.9936867  68.2130861  38.2872391  59.3823338  83.2844067
  38.6427021  58.5866928  82.8883839  37.4366236  59.1165638  83.6337662
  25.8241940  55.3537989  74.6950197  26.0134649  54.7711563  73.9595366
  26.0200047  54.8301315  75.4719734  99.3305111  88.3103085  50.8241510
  99.0760803  88.6225796  49.9558258 100.2295017  88.6194324  50.9359312
  85.0772762  46.9789553   7.5517213  84.7593784  46.1513615   7.9126358
  84.5836258  47.0913315   6.7393702 108.5819626  53.8269281  56.9759512
 107.7734947  54.3372631  57.0224810 108.3097553  52.9782915  56.6267395
  59.9771309  83.7521744  82.8591537  60.6482744  83.0698109  82.8728008
  59.4256973  83.5307789  82.1087360   1.7712612  57.5364828  85.9927940
   2.3529397  58.2678032  85.7852936   2.3080571  56.7563868  85.8530426
  56.8039656  17.9586387   8.6335236  57.1542358  17.2026753   8.1622887
  56.2234879  18.3856738   8.0035079  71.5922356  70.1776075  87.0937157
  71.3510323  69.2881966  87.3525715  72.3392296  70.0618887  86.5064812
  65.2749634  93.7459660  66.3255644  66.1414814  93.3465481  66.2491035
  65.4448605  94.6224499  66.6707134   2.0499079  61.1183023  75.3185225
   1.8847863  60.6835890  76.1551762   1.3014808  61.7032957  75.2007437
  95.7218170  52.6990128  79.2546129  96.1810112  51.9593954  79.6525240
  95.1696777  52.3033571  78.5802031 112.5102234  85.0063801  87.1214199
 112.6670837  84.6095562  86.2645912 111.6741467  84.6377850  87.4066353
 109.8977470  82.8320789  62.2869492 109.7840500  82.2597694  63.0457497
 109.5353317  82.3336029  61.5545511  82.7694798  37.4942756  20.1992798
  83.3921051  37.5806022  20.9211612  82.5816059  36.5566993  20.1558495
  15.6403542  70.0974846  74.1604280  16.2403667  70.8114719  74.3759251
  15.5115414  69.6347380  74.9883795  99.1161823  66.1727762  71.3149118
  98.5068798  65.7620239  71.9283152  99.7456264  65.4830217  71.1045122
  99.9739647 103.2786942  88.3114529  99.9060059 102.4178982  88.7245464
  99.6561050 103.8892937  88.9765644  95.5643559  80.0502682  89.8737431
  94.7130680  79.9541950  89.4467640  95.8830070  80.9047890  89.5830822
  19.0626037  12.0334494  73.5649538  18.8812029  11.1946666  73.1409597
  18.3667576  12.1285033  74.2153358  91.4386654  42.1469069   2.4708983
  91.3506508  43.0604219   2.1989094  92.0211029  41.7578173   1.8185136
  88.1278896   6.5776747   5.1734263  88.0556297   7.4578828   5.5425400
  89.0398121   6.3288665   5.3241622   7.8849888  70.6005192  21.4117312
   8.5851580  71.0839033  20.9731698   7.0830834  70.8976650  20.9817505
  85.8509254   9.1931921  47.0312977  86.1892891  10.0828528  46.9300795
  86.2563610   8.7001497  46.3180161 109.6380520  68.8067818  24.0617990
 110.3443146  68.1644726  24.1315317 109.7599030  69.2040873  23.1995177
  65.9160757  14.2720616   7.5756866  66.0991383  13.5531020   6.9708568
  66.7792273  14.5642328   7.8686762  10.7074475  78.5309601  86.9329929
  11.4918351  78.8303089  87.3927212  10.2989233  79.3335676  86.6087151
 102.3418236 100.1513863  67.7352476 101.7776203  99.4826221  68.1233931
 102.5652313  99.8044586  66.8715620  77.5653553  79.2786598  71.1400747
  78.1292248  79.4192600  70.3794718  77.5570440  80.1227570  71.5913630
  65.7179546  51.6607952   3.7155765  65.2879953  50.9197140   4.1423827
  65.9891129  51.3215637   2.8625658  90.0381756  98.2143497  68.4541273
  90.0010967  99.0922642  68.8337660  90.7272625  97.7690792  68.9472103
  70.2504110  92.2735786  58.1518459  69.4853258  92.0970440  57.6043892
  70.9667540  92.3982430  57.5293159  63.0402660  50.9084415  19.5507491
  63.7384272  51.5632677  19.5546710  62.6941872  50.9219694  20.4430914
  47.6257372  86.3809204  77.3433876  47.9200077  85.4708004  77.3795986
  48.1420469  86.7717075  76.6384459  38.4505551 105.8137667  31.1973357
  39.3380301 105.8870770  30.8462644  38.5267584 105.1800765  31.9106793
  88.3807468  86.6006279  81.7544842  87.8368759  86.6600704  80.9690571
  87.7793503  86.3120365  82.4409771 104.1986561  67.8511477  82.7715206
 104.1647434  68.0084991  83.7150860 103.3030224  68.0047798  82.4707413
  82.7258778  74.6021128  58.6723280  82.3110199  73.7919426  58.3761024
  83.5134315  74.6787500  58.1337070  90.3412437  98.8449860  47.0176935
  91.0651875  99.4116306  47.2842407  89.5777512  99.4221687  47.0042086
  10.1064134  52.2229528  76.0545492  10.0937724  52.9426384  76.6855192
   9.4755059  52.4821043  75.3829670  34.9754500  44.1145945  21.0967088
  34.6037745  43.5167551  21.7453051  35.4459262  43.5451365  20.4879427
  90.5187321  65.4882860  58.3537674  91.3921642  65.3463316  57.9888153
  90.0541592  65.9820652  57.6780558   9.5060378  70.4451704  81.6854000
   9.0163273  70.9316492  82.3485374   9.4337738  69.5302963  81.9574642
  21.7066789   1.7938831  56.1295700  21.2982392   0.9459604  56.3040352
  22.3011899   1.9296964  56.8673658  89.8879814  28.2631874   9.8976535
  89.5675564  28.3406043  10.7963026  89.1239357  28.4543228   9.3536484
 109.4037151  58.9961386  65.0290632 108.7398148  59.0324306  64.3404818
 108.9675713  58.5572624  65.7594013  11.7393398  62.1484137  55.3371000
  11.9680500  61.5459824  56.0449123  10.7872474  62.0818281  55.2641678
  92.1084976  73.9143801  53.2134962  92.4011993  74.0836668  52.3180103
  91.6345406  73.0846310  53.1577396  92.4699116  33.6912274  62.9139519
  91.6174412  34.1262865  62.9300261  92.6162720  33.4851694  61.9907236
   2.7894139  42.0613098  44.0804434   3.0000582  42.2205114  43.1603813
   3.6404929  42.0079660  44.5152426  47.1285200  14.5992708   0.1605982
  46.1787653  14.5218003   0.0700626  47.3351192  15.4577219  -0.2090096
  82.3745632  54.4961596  51.9802570  82.2248650  55.4089546  52.2264910
  81.5242004  54.1907978  51.6642237 112.0900536  34.7627974  73.1734276
 111.2847042  34.8263097  72.6599979 111.8583488  35.1257801  74.0282917
  32.4949050  34.7551966  18.2835865  32.7819180  33.8450742  18.3579624
  32.1087408  34.9550080  19.1363382  40.3369045  17.0209777  25.5732799
  41.2450171  16.7200577  25.6050301  39.8786569  16.3469839  25.0713134
  93.1725216  33.9065313  55.1918602  92.6759052  33.1542563  55.5138731
  92.8159237  34.0732050  54.3193388   6.4327872  52.9675102  82.7215862
   6.2214369  52.8775072  81.7923546   7.3752511  52.8071976  82.7694702
  78.9836740   8.6128962  -0.2044280  78.3081198   9.2388463   0.0564243
  79.4530916   8.4154928   0.6060727  68.4043121  38.2216883   6.9966352
  68.9778996  38.9432883   7.2545671  68.9775991  37.6163983   6.5263146
 102.7501774  46.0591173  49.5465040 102.6619911  46.3728476  48.6464882
 103.2896233  46.7210007  49.9790955 100.8225536  50.7673883  74.1404152
 100.3363991  50.1118517  73.6402559 100.9308815  50.3755951  75.0070143
  94.3597126  42.1861029  85.1770878  94.0538692  41.5150452  85.7873154
  95.0362682  42.6595783  85.6611538  87.9944324  63.2717562   2.3561007
  87.9200840  62.7395487   3.1482258  88.4966278  62.7284431   1.7487751
  38.7511349  17.7955103   7.6775962  38.9246082  17.7513003   8.6179072
  38.2449126  17.0050776   7.4900109  70.4726839  86.4671993  53.7695122
  69.9438238  86.2672234  52.9971504  69.8938608  86.9856548  54.3284464
  90.8664894  59.0119505  72.7618265  90.3107738  58.3772039  72.3095942
  91.4765263  59.3174028  72.0904207  -0.1889151  76.1559200  66.1137962
   0.1048834  77.0268774  66.3809204   0.5193121  75.5711222  66.3833475
 100.3446198  71.2942457  79.7357273  99.8411655  71.4511919  78.9368963
 100.9145832  70.5565357  79.5185709 103.7533283  77.6582193  58.7853765
 102.8192425  77.5065899  58.6414289 104.1875267  76.9581795  58.2978868
  97.0410061  63.2040310  70.5798960  96.7245102  62.5219536  69.9875879
  97.2281265  63.9491510  70.0089216  25.0697756  62.2466755  69.5722103
  24.6437001  63.0659294  69.8242474  24.5506597  61.5653944  69.9995279
 104.9529743 103.0860996  78.8824749 104.1025448 103.4765148  78.6809874
 105.5231667 103.8336468  79.0621567 108.5607910  74.8340940  77.8146410
 108.8133907  73.9362526  77.5994492 108.3440304  75.2306890  76.9708681
  91.1138248  41.7470837  74.9657345  91.0220242  40.9012747  74.5270920
  91.0231876  42.3918486  74.2640972  98.7106133  50.5612373  51.0959578
  99.3444633  49.9072886  50.8013010  98.6234379  50.4037237  52.0360756
  35.1021767  88.2164478  62.3627472  35.5792332  88.1262875  61.5378094
  35.0816703  89.1594410  62.5257349 105.2912045 104.2896652  62.7519226
 104.4681263 104.3230820  62.2644138 105.7978344 103.6021042  62.3197031
 112.2223076  65.3414106  71.3870192 111.7684366  65.7318211  72.1338892
 112.6956899  66.0706329  70.9865475  58.5002136  96.9281387  69.4136190
  58.8215351  96.9778538  70.3139019  57.8888941  97.6606655  69.3367004
  76.9210100  26.7554259  39.2191863  77.1591854  26.0533381  38.6137295
  76.1459160  27.1573496  38.8268661  53.8786650  38.5507774  10.2689505
  53.5761166  38.0334735  11.0153389  54.8296595  38.5861897  10.3718150
   2.0917627   2.0386803  71.7677975   1.2302808   1.6217777  71.7512798
   2.7009061   1.3227177  71.9482803  21.3403702  68.9674377  69.1644096
  20.4446411  68.8712358  69.4878960  21.3999963  68.3484602  68.4367085
  92.0127583 104.6711159  38.4835196  91.6567612 105.1716232  39.2176819
  91.2418842 104.3725967  38.0009556  51.9400358   3.9764374  90.1971912
  51.6217279   3.8548544  89.3026924  51.2902021   3.5357022  90.7446384
  95.4636383  96.2424469  47.3489523  95.8217621  95.5722141  46.7669201
  95.5699635  97.0614815  46.8651104  25.6754088   0.5539710  58.0332279
  26.3920140   0.2721870  58.6018276  25.4634047  -0.2211132  57.5131035
  92.0347691  21.8192720  28.8422918  91.5691090  22.5655389  28.4648275
  92.6800060  21.5784431  28.1775355  75.3217268  66.2395716  11.6271853
  75.7977009  66.3612318  10.8056760  75.5709648  66.9931030  12.1622586
 111.7268467  53.4662294   0.2820473 110.7772064  53.3815145   0.1969724
 112.0554638  52.5709343   0.2002356  68.3563805  70.0515413  57.5657320
  67.5653362  70.3605127  57.1241188  68.5885096  70.7607222  58.1652403
  61.1839962  12.2480905  61.3725471  61.5889454  13.0826676  61.6086149
  61.3810015  12.1410131  60.4419804  95.0496483  95.9816074  41.2285280
  94.2587376  95.4445934  41.2765217  95.6958008  95.4187679  40.8020020
  11.4397728  62.3046541  86.9738770  11.9678473  62.1744061  86.1862183
  11.0080552  61.4620495  87.1148396  22.2931004  23.2239795  81.2481499
  21.4869738  22.8002071  80.9535122  22.2234845  23.2336926  82.2027588
  93.1383324  64.7870255  57.1968651  93.4929657  65.3946495  57.8459072
  93.4071445  65.1529312  56.3541985  13.3029330  65.9974098  82.2165298
  12.5665259  65.9110022  82.8218937  12.8968990  66.0489511  81.3512516
  73.6951590  21.7842007   3.7813807  73.0964518  21.3199472   4.3664056
  74.0049887  22.5285721   4.2972767  16.8176568 103.9124393  58.7380791
  17.5672531 104.3297100  58.3135509  17.1599627 103.0803204  59.0646410
   2.7453035  62.1240711  56.4328671   2.2630687  61.4118195  56.8528366
   3.6394471  62.0350742  56.7627430  89.2484188  93.9535236  78.1434011
  88.6090946  94.6291256  77.9174423  88.7907696  93.1279659  77.9845333
  78.5134888  95.8751678  46.9377184  79.0523958  95.3997040  47.5699759
  78.5480022  95.3411198  46.1440945  10.0915754 103.3551407  69.4824839
  10.6696236 104.0439415  69.8105860  10.0293279 102.7303791  70.2049971
  80.6547260  87.4126339  78.7055302  80.0852776  87.3498917  77.9387045
  81.5421200  87.3879719  78.3475399  57.5981379  77.5732517  11.2700033
  57.2257137  78.2389116  11.8483007  57.7216816  78.0237722  10.4345405
  44.1494465   6.9217414  56.9928122  43.7150335   6.3854527  56.3295555
  43.6425591   6.7726851  57.7909899  33.8412714  10.1573646  68.1795788
  33.1873155   9.6216190  67.7306366  34.6692395   9.7015530  68.0281258
   7.5217962  91.8061924  55.8104753   8.2911718  91.2423420  55.8902740
   6.8363923  91.2297344  55.4726076   0.3771177   4.7281876  72.5012016
   1.1396828   5.0169009  71.9998312   0.2374835   3.8225329  72.2245693
  36.3639903  14.3796623  56.9488096  36.4890218  14.3789339  57.8978062
  36.0189772  15.2508664  56.7533493  12.1769619  94.0202713  86.8869686
  11.2537563  94.0911293  86.6442680  12.2913182  93.1010723  87.1282387
   8.1201112  91.4143562  76.4809513   8.5886252  91.1925316  77.2856379
   7.8064430  92.3071957  76.6247940 103.3759308  96.5303612  70.2852011
 104.2388725  96.1252499  70.1988745 103.5556984  97.4693966  70.3313160
  67.2595310  19.3771660  -0.1252619  67.3499489  19.4849193   0.8215464
  66.8886089  18.5012722  -0.2322983  88.4233665   2.9905999   5.7496750
  89.0834141   2.8762171   5.0659478  88.8143349   2.5948471   6.5286207
  35.3788805  19.1439342  79.4671822  35.5873442  18.3085299  79.8853636
  36.0750604  19.7352993  79.7532845  11.9082046   6.0079068   0.9491359
  12.7457690   6.2734586   0.5694000  11.6659391   6.7327738   1.5254240
   4.3687120  76.4388180  62.6323891   3.9252052  77.2731924  62.4795866
   5.1305276  76.6665792  63.1653023  55.1836157   7.2690517   2.0553261
  55.3790569   7.9135489   1.3751373  54.5035648   7.6815760   2.5878555
  81.3878059  86.2129879  56.0451126  81.3790894  86.9993019  56.5908813
  82.0956516  85.6789875  56.4057064   1.9482817  98.0015182  44.2021847
   2.7625108  98.3207321  43.8131285   1.3034225  98.0700874  43.4981346
  87.2226048  83.2565403  83.9735889  87.8734589  82.7295399  84.4371605
  86.8490124  82.6597595  83.3251190  83.0881023  28.2758617  15.1810873
  83.0232811  29.1964149  14.9268997  82.7971363  27.7927637  14.4076633
  30.9834552  27.7162480  62.8797150  30.7932997  28.0210519  63.7669373
  31.7628789  28.2072783  62.6196718 105.4865074  67.2531557   2.5150323
 105.3603268  66.7375040   1.7185313 105.5720997  66.6016769   3.2110766
 105.9518147  97.1708298  55.6832218 105.7679081  98.0569744  55.3715181
 106.8934917  97.0611000  55.5511808  87.1125317  34.4294214  15.8842158
  87.7381229  33.7226152  15.7251906  87.6503754  35.1624990  16.1834705
   7.0466644  52.5400686  40.0328255   7.1538764  52.0722866  40.8610296
   6.8592334  51.8536472  39.3925691 108.3028126  94.0322113  56.3727760
 107.4416542  93.6379623  56.2341356 108.1351757  94.7767258  56.9505548
  96.5180111  82.0910454  53.9795160  95.7482624  82.5962353  54.2412329
  97.2387505  82.4778938  54.4766283  40.1176786  84.9192429  78.3539152
  40.2589703  85.0497723  77.4162436  39.3221927  84.3892956  78.4047747
   4.2400753  97.8994942  82.4941921   4.5373631  97.0054150  82.3254395
   4.8493558  98.4511089  82.0035458  57.4869633  17.4728966  75.2468252
  58.1768703  17.1596789  75.8317614  56.8149376  17.8200758  75.8334064
  39.0470099  41.9240856  27.4868274  38.8384652  41.2876368  28.1706953
  39.5945358  42.5756359  27.9249239   2.9391751 100.6870270  52.5282288
   3.4804478  99.9651814  52.8479195   2.3774490 100.9119034  53.2699347
  13.2744646  86.4493847  56.3461876  12.4433374  86.0885334  56.6548014
  13.6063468  86.9548893  57.0881844  55.5286694   6.2950170  73.5987806
  56.2866640   6.8617409  73.4556055  55.7272053   5.4999638  73.1041050
  47.8769445  17.3662770  29.6093535  48.7167978  17.3354197  29.1511726
  47.7566290  18.2906246  29.8269248  34.8176885  11.9651663  43.5032034
  34.4644976  12.8535950  43.5499287  34.6265769  11.5860188  44.3610811
  33.5077524  91.5197754  41.3436699  33.2592082  91.3919353  42.2591591
  34.4171619  91.8160343  41.3815117  12.5471961 105.4267025  60.7744884
  13.4861100 105.2532959  60.8423090  12.4868441 106.3741398  60.6521463
   6.6292131  36.6041470  89.2057896   6.3400173  35.7642698  89.5624447
   7.1489203  36.3714385  88.4363842   0.8245795  99.8092556  48.4689569
   1.0506979 100.7273483  48.6180115   0.1118335  99.8387051  47.8307104
  36.2326121  24.3843412  45.1872301  36.7642236  24.2204380  44.4082880
  35.8785629  23.5261655  45.4204988 109.0670013 102.0407581  69.5201778
 109.0012741 101.5568256  68.6969423 108.2170773 102.4710274  69.6135902
 111.2022686  31.2855172  64.4846344 110.5301952  30.8279371  63.9794827
 110.8154583  31.3957763  65.3532267  32.4839163 103.4089470  26.9134212
  32.7671099 103.2139492  27.8067350  32.8976274 102.7320099  26.3778591
  30.2851772  33.9928198  22.7833056  29.7899485  34.6157002  23.3152819
  30.5881286  33.3329391  23.4070110 110.2702618  98.6052799  45.4918432
 110.9050465  97.9853344  45.1327515 110.0682354  99.1908932  44.7621298
  16.6154957  91.1105633  41.1203814  17.3831213  91.1183643  40.5486107
  16.3517475  90.1910591  41.1547041  11.5014231  70.0650930  45.9411573
  12.4122965  70.0031757  46.2287474  11.2597609  69.1666937  45.7159615
  19.1893303  61.0504150  58.0662680  19.3157327  60.5300570  58.8596678
  18.4087884  61.5746832  58.2455111  60.9077358   4.0886432  90.6723785
  61.6401911   3.7309229  91.1741543  60.5126381   4.7374585  91.2547588
  50.2215004  69.9282742  90.9696960  49.6536350  69.1591930  91.0174084
  51.0303593  69.6045446  90.5732536  97.5740242   3.5751477  79.2170477
  98.3639526   3.2364568  78.7956905  97.3509121   4.3580642  78.7135601
  78.7554598  95.8197784  84.7128868  77.9659319  96.2368488  85.0577354
  79.3534660  96.5464973  84.5382690   1.1252733  91.4065456  27.0366025
   0.5397383  90.8026505  26.5797734   1.1198024  91.1044216  27.9448533
  67.4113703  18.4436536  51.3636875  66.6475677  18.6637604  50.8304024
  68.0388165  18.0741215  50.7424068  55.3041363   7.8273386  37.1690202
  55.7876015   7.8407264  36.3429976  54.6977854   8.5651040  37.1036315
  53.6056471  30.5703306  49.5487690  54.3218851  30.3094649  50.1277161
  52.9003000  30.8289647  50.1419163  61.2656546  24.4414186  24.3552756
  62.0420694  23.8871431  24.2765713  61.6127729  25.3171802  24.5249295
  52.6050043 101.8098450  59.8315334  52.2612762 101.3286686  59.0788364
  53.2362127 102.4234390  59.4556189  56.6181707   9.8369342  75.6095362
  57.2345304  10.5676222  75.6587887  56.6221237   9.5820296  74.6869087
  48.7242222  23.2313561  46.4345646  49.2979479  23.7358546  47.0112371
  48.7962866  23.6662030  45.5848932  14.0424848  98.5798931  54.1365910
  14.0354121  98.7746048  53.1994295  13.9745319  99.4358635  54.5595837
  49.2918682  38.1728816  12.5781798  49.3041801  37.7055454  11.7429090
  50.0286484  38.7814355  12.5230265  95.3310013  36.9693518  70.3392315
  94.8485661  36.7333078  69.5469093  95.1250458  37.8936815  70.4786205
 106.7379570  92.0857811  31.6838813 106.1591530  91.4670086  31.2385249
 106.1532307  92.6078892  32.2331834  44.7632790  12.7893209  78.2417202
  45.3096867  12.1572649  77.7746248  43.8880348  12.6672029  77.8739309
  32.2537327  96.6270161  11.3226116  33.1614375  96.3305759  11.2560594
  32.2838593  97.5495529  11.0691440  93.9079189  83.3246803   5.1553541
  93.5381699  84.1256046   4.7838181  94.1920376  82.8170013   4.3952447
  83.4239101  14.2542517  37.7407980  83.2099533  13.7979412  38.5545754
  82.5762081  14.5242119  37.3875737 100.4385090  89.6136093  20.4438663
 100.6394672  90.4337692  19.9931085  99.4974995  89.6578598  20.6134725
  52.9700899  14.5298362  53.9107800  52.3910427  15.1123095  53.4191942
  53.8481998  14.8773241  53.7545443  14.7061694  93.2415295  65.9666681
  14.3211186  93.9612675  65.4667187  15.6392300  93.4510612  66.0082483
  95.1968002  94.5629501  54.6505499  94.3951225  94.8832607  55.0640059
  95.5249119  95.3115177  54.1523170  73.8807631   0.6103543  54.6196365
  73.2864571   0.0869120  55.1572609  74.3067741  -0.0256186  54.0449333
  20.8631039   2.7479786  44.8558140  20.9530473   3.6537907  44.5597649
  21.2640142   2.2275388  44.1596508   1.9627108  92.7692986  56.3568354
   1.9992621  93.4222603  55.6578732   2.8501013  92.7522087  56.7152739
  55.8861113   6.9827610  59.5597267  56.1605406   6.6312897  58.7127399
  56.6611576   6.9009787  60.1154613  22.6784492  86.4098072  62.4170732
  21.8592930  85.9386063  62.5693274  22.9143882  86.7633152  63.2747459
  72.4690247   6.8783367  52.0724869  71.7862320   7.5042093  51.8310165
  72.2283077   6.5889716  52.9525757  40.8960199  79.1025543  72.6341724
  41.3031435  79.9032497  72.3034573  41.5426350  78.4174347  72.4646664
  24.9896765 101.3981342  10.7146251  24.1478300 101.7234230  10.3957033
  24.9124956 100.4453278  10.6653821  24.2574883  89.2599869  62.9545403
  24.5915270  89.3585777  62.0629501  23.6121869  88.5557747  62.8920460
  78.5608864  14.2928278  15.3523064  79.3161297  14.8383427  15.1326549
  78.9411974  13.4724057  15.6661546  26.0625482  92.7948189  55.5312920
  26.6826630  93.5230923  55.5674648  25.2845025  93.1632996  55.1128435
  37.0175195  94.5428848  28.1519008  36.8278861  95.3594112  28.6140275
  36.5789127  94.6387100  27.3065162  70.8736706  19.1003180  28.1003690
  70.6860685  18.7483740  28.9705276  70.9126949  18.3298683  27.5336957
  77.6448965  12.1749699  28.4196091  78.4036016  11.7191362  28.7840486
  77.4258137  12.8372788  29.0750313  59.6521425   7.2437936  75.0096703
  58.9621449   7.0109248  75.6308842  60.0196552   6.4040381  74.7340345
  20.9427595   9.3609452  86.8609715  21.3432431   8.6289942  87.3301029
  21.6784501   9.8094893  86.4440727  17.5570655  85.0884247  70.7958651
  17.4594927  86.0275936  70.6388330  17.6201189  85.0100231  71.7477655
  35.0290513   3.5097137  39.7381878  34.6742773   3.1892040  38.9089465
  34.4325328   4.2115563  39.9985981  91.2432384  92.8824615  76.4537334
  91.4667130  93.7027168  76.0138845  90.5136204  93.1106377  77.0297813
 104.4446087  10.5075943  56.2774611 103.6022472  10.1022911  56.0715914
 105.0149345   9.7729325  56.5037966  41.3053226   1.3818173  23.5646439
  41.6381931   1.8806201  24.3107200  41.8411350   0.5887981  23.5484886
   8.8225049  99.9744606  12.4807775   8.0623329 100.5270386  12.6625347
   8.6015207  99.5236111  11.6658330   4.7877821  94.9380493  50.3011227
   4.0525106  95.5500317  50.3340149   4.8350358  94.6695137  49.3835783
  67.9291296   2.3507641  81.4580154  68.3536530   2.7519590  82.2163391
  68.0958652   1.4135367  81.5581894  89.7606373 101.0119152  35.9402752
  90.3831673 100.2848530  35.9320688  88.9057446 100.5940819  36.0442281
  25.7850742  12.3731029  73.8862658  26.3831234  12.5638390  74.6088934
  24.9250174  12.6407540  74.2101479  40.0184441  33.3442116  82.3102665
  40.2903986  32.6773715  81.6797161  40.6115770  33.2280469  83.0525112
  27.1208954 105.6661415  68.4474707  26.6944790 106.4909744  68.6799622
  26.6973925 105.0124359  69.0038347   1.6940863  11.3011193  85.2867126
   1.3732988  12.1606398  85.5597687   1.3415701  10.6956387  85.9389114
 109.2602158  98.0931664  28.6382747 109.1716290  98.8405514  29.2297101
 109.9067497  98.3751202  27.9911828  60.4209375  15.4097211  56.2778521
  60.4376268  16.2574112  56.7221212  59.5042658  15.2864933  56.0313654
  32.7683568  93.7902164  90.1903629  32.7036762  94.6746922  90.5505753
  33.5216784  93.4041214  90.6372070  88.3988094   2.0193681  43.5900640
  88.2901669   2.9678321  43.6596727  87.7614117   1.6593780  44.2067957
  99.1997242  86.6856670  34.8809385  99.2874432  86.0896015  35.6247425
 100.1005840  86.8949223  34.6341681   4.5801728 105.3334818  25.4714823
   4.8785918 104.4720505  25.7632279   3.6253445 105.2665128  25.4645872
  47.2491884  18.9524174  73.6921787  47.0384645  18.2153857  74.2654276
  47.3102903  19.7042918  74.2813969  39.3003798  96.8905640  41.6215467
  38.4331179  96.7814732  41.2314320  39.4441342  96.0832977  42.1153927
  68.7803459  26.1594725  88.7564659  69.0070105  25.2295017  88.7536144
  69.4967747  26.5820694  88.2827854  35.8945084 105.3324890  68.4110403
  36.7763591 105.5152035  68.0867147  36.0148907 105.1513767  69.3432093
 110.8227539   8.9394480  58.8637972 110.9344101   9.7561777  59.3503284
 110.0288773   8.5493612  59.2296028  42.4823332   8.3718097  52.3235083
  41.9098663   7.7873576  51.8265915  42.1314335   9.2471546  52.1595860
  54.8640680  23.0187583  30.3822494  54.3036175  23.7922931  30.4436588
  54.5822287  22.4606347  31.1070228  64.1884661  24.3305397  73.1768894
  64.0979815  23.9271235  72.3135805  64.7352791  25.1013422  73.0249453
   2.6771909  39.2884016  91.1686230   2.2071752  39.0806651  90.3610516
   2.3001394  40.1191664  91.4582634  60.7967138   7.7408314  53.5082626
  61.6404915   8.1238306  53.2682991  60.4274511   8.3539605  54.1438341
  46.6044283  45.9052086  67.6842546  47.1160078  46.5445232  67.1884775
  46.2228966  46.4092779  68.4029913  89.7100544  14.7373164  59.9705648
  89.4457436  15.6536674  60.0522327  89.5363617  14.3601632  60.8330154
  23.3360457  88.9381504  78.3096361  22.6805425  88.5020447  77.7652502
  24.1429067  88.4479141  78.1519556  48.9103460   1.2856942  64.0776253
  49.6553135   1.8434018  63.8535309  48.3524561   1.8393439  64.6239424
   6.8347943 105.7573414  46.3391781   6.1134785 106.0659981  45.7908440
   6.9789058 104.8534966  46.0589314  21.6466689  94.8381615  23.7716579
  22.2051716  94.0716076  23.6424351  22.0420909  95.5174351  23.2253432
  49.8878574  35.1382303  30.3484011  49.8855734  35.9744430  30.8142090
  50.1857805  34.5024657  30.9990001  72.8647995  15.5347288  60.7139063
  73.6603642  16.0182619  60.4914141  72.7090263  15.7409704  61.6355515
  43.0568600  20.0767517  59.3511391  42.9481888  19.3003690  59.9003696
  43.4781265  19.7505367  58.5559368  46.2347794  99.7596836  30.4357529
  46.5468550  99.5590782  29.5533729  45.4191113  99.2657948  30.5193806
  39.0350151 102.5394344  70.7298851  38.5303235 101.9940472  70.1265001
  38.5209036 102.5422859  71.5372944  79.0882349  31.2693286  31.9494390
  78.8849497  30.9175277  31.0827518  80.0323391  31.1428714  32.0438528
  37.0518732 104.0831184  42.3580647  36.3483572 104.6731472  42.0875931
  37.2258568 103.5472775  41.5842199  88.7123013  63.5766077  50.6684446
  89.2754459  62.8435755  50.4199219  88.5521889  63.4493303  51.6035366
  86.9793129  31.8814874  82.8067684  86.0396481  31.7319012  82.7024651
  87.1196270  31.8725777  83.7535858  69.3229008  26.0183048  46.2553167
  69.2611885  26.7661333  46.8496037  68.5605192  25.4799366  46.4678288
  74.5002699  37.0834208  89.8373795  73.7355566  36.9761944  90.4030132
  74.1352606  37.3036242  88.9803410  97.0876598  20.9529448  37.9332709
  97.9084492  21.3042831  38.2783747  96.5116787  20.8970642  38.6957359
  28.8529968  33.3840370  41.4408827  29.4111919  33.2507014  40.6748056
  28.8971400  34.3254185  41.6084671  60.2598619   2.9684615  44.4974804
  61.1658859   2.9221514  44.8027658  60.2858114   2.6014292  43.6138248
  67.1800661   7.0207006  43.5428047  67.4949741   6.9739723  42.6400995
  66.2568998   7.2605407  43.4623194  95.9125900  60.4896593   6.1437017
  95.4162312  60.5119181   6.9618481  96.6783619  61.0383987   6.3131344
  38.0521464  90.2087116  76.8224669  38.1040716  91.1405754  77.0350075
  38.4857750  89.7713947  77.5552320  15.7394862   9.6783578  59.0677738
  16.2399757   8.9866740  58.6349726  15.7273126   9.4236988  59.9903965
  87.5621937  42.5383331  91.7454755  87.8560863  42.9802563  90.9488826
  86.6611240  42.2769215  91.5558169  83.5812664   8.2325274  49.6498346
  84.3863964   7.8621376  49.2881727  83.8783455   8.8132852  50.3503323
  36.7815018  31.9024825  48.7583447  36.9903684  31.4949632  49.5988989
  37.5759625  32.3801208  48.5197496  10.4371727  58.1991196  83.3913612
  10.2553010  58.0276775  84.3153477  10.5888224  57.3332930  83.0124378
  39.9177265  91.5002537  88.2143307  39.3240976  91.5460300  88.9638329
  39.8233438  92.3489475  87.7818584  51.5859175  86.9531059  30.2298737
  51.9320440  86.4730549  30.9821868  50.6946325  87.1899319  30.4863167
  88.6587048  98.0840683  41.5792704  88.3437443  98.7849140  41.0084438
  88.6684322  97.3065948  41.0209846  41.2341166  69.3060827  29.2347360
  42.0462847  69.0758419  29.6859670  41.0916233  68.5887909  28.6171412
  70.0900745  11.8236303  42.5006104  69.5644045  12.5793982  42.7627563
  70.9420013  11.9702613  42.9116488  67.7657318  18.8834548  58.0620813
  67.3698425  18.0126274  58.0961847  68.3912134  18.8340592  57.3391962
  71.0772753   2.6100126  54.1994762  70.8598423   2.5370419  55.1287937
  70.8185339   1.7674790  53.8260841  29.4348145  99.5580387  56.5163136
  30.0659943  99.6351242  57.2317886  28.8416004  98.8601875  56.7943859
 106.4226913  14.4459510  56.4787436 106.2657738  13.6379850  55.9900761
 105.5745602  14.6589887  56.8680048  25.5610561  88.4845066  73.9462090
  26.0352206  87.9833031  74.6096802  26.0346413  88.3125877  73.1323338
  27.0098996 101.2695980  46.5032244  27.5770760 100.4987240  46.5204668
  26.2964582 101.0288715  45.9122276  32.5350404  90.4099560  59.6291876
  32.8619742  91.1583328  60.1284647  33.3236647  89.9784184  59.3004370
  29.8458958 101.1773396  36.7781758  30.2448988 101.3010693  37.6394081
  29.2892647 100.4054165  36.8807650  78.1962204  34.5831466  68.2878780
  78.4423494  34.0587950  69.0499210  77.3852921  35.0194478  68.5491610
  32.0508075 102.1610069  62.0551872  32.9751015 102.3384953  62.2295713
  31.9483089 101.2264442  62.2349834 102.5544167  10.1722491  28.2731628
 102.4332523   9.2956185  27.9083753 102.4943161  10.0479352  29.2203498
  24.1761613  77.3249006  72.5605059  24.7691679  76.6555643  72.2190952
  24.3776917  78.1075764  72.0476341  38.2535744  91.9690418  29.0910912
  38.7108755  91.7885685  28.2697892  37.6516104  92.6822090  28.8783503
  43.6322300 105.5706878  68.0742359  44.0500729 106.3665275  67.7451754
  42.7399247 105.8408010  68.2911777  35.7929516  99.1760921  56.5501595
  36.1274862  98.4990883  55.9619474  35.1697683  98.7173080  57.1135330
  84.3038559  20.6234050  15.6149721  83.6257648  20.7159424  16.2841940
  84.9292946  21.3213849  15.8096099  28.4561300  88.6407185  91.5653419
  27.9123259  88.6952209  90.7795048  28.9349079  87.8175163  91.4686584
 100.5867672  22.8527308  61.4249945  99.8389530  22.6719236  61.9944906
 100.4966164  22.2277403  60.7056236  73.0667019   7.2064561  44.6358204
  73.4429216   6.3292849  44.7083473  72.4936867   7.1587807  43.8705635
  32.9275703  99.6699047  44.8012733  33.2164979  99.9930573  45.6546926
  32.3337126  98.9479446  45.0070572  73.8470316  27.5088596  45.9754658
  74.5889425  27.1323490  46.4487886  73.3981133  26.7541885  45.5944490
  73.4124660  14.5762467  24.0222788  73.1485844  15.0306034  24.8223805
  73.0604410  15.1149786  23.3137059 108.6590767  13.6319566  48.9719105
 109.4787502  14.0671420  48.7374258 108.9267731  12.9012883  49.5293140
  85.9313202   2.6474708  20.3942490  85.7377434   3.1693748  19.6155488
  85.1536465   2.7407122  20.9444833  51.4902639 100.8205414  46.4516401
  52.0507336 101.5962410  46.4715528  51.8464231 100.2501678  47.1328497
  76.2787628  23.2214332  37.7884817  75.9204817  22.4446464  37.3589802
  75.5820274  23.5127187  38.3766532  67.9674816  15.8682859  27.8419590
  68.8570690  15.6264246  27.5843239  67.4664879  15.8418429  27.0267701
  71.5908146 102.0003986  56.4579916  71.4471102 101.1254215  56.8185377
  72.2542953 102.3885059  57.0284319  10.9190762 104.1263866  46.7653894
  10.2433634 104.8041916  46.7502737  11.3527083 104.2393112  47.6112270
  39.0212011  86.6550922  28.0104065  38.8020706  87.3641777  28.6148977
  39.9237347  86.8350601  27.7472043  91.6452980  44.3263197  54.6771049
  91.2034893  43.4855080  54.7957420  90.9958649  44.9776363  54.9421501
  91.7295551  14.9490213  81.6182995  91.6562080  14.4044936  82.4021053
  91.0417080  14.6254039  81.0366058  90.2924116  -0.0706797  68.0812073
  90.8131225   0.7215566  68.2132959  90.4308231  -0.2977305  67.1616840
  80.4252148  37.8750014  15.3151941  80.1434898  37.2642040  14.6341717
  80.8861637  38.5668087  14.8406827  23.4863925  59.4187641  45.6440353
  23.9557672  59.2207336  44.8336649  22.8925085  58.6777306  45.7640457
 112.2679996 104.0301704  59.6214581 111.5032291 103.5603237  59.2889071
 111.9816494 104.9415398  59.6817398  67.6736212   5.9913498  73.5964155
  68.4597969   5.5132771  73.8602352  67.9788733   6.6032612  72.9266214
  24.5557547 105.1375198  78.3254910  24.1278481 104.7180748  79.0719461
  24.5385575 104.4740868  77.6357079  49.2952871  89.1762352  36.9004869
  49.4889355  88.8961792  37.7950811  48.4109116  88.8502598  36.7336059
   0.4735685 103.4469986  46.3382435   1.3263965 103.5848141  45.9260225
   0.0275247 102.8248501  45.7636118  78.6741734  35.7493353  32.0802784
  78.9252901  36.6700268  32.1544313  79.5053911  35.2749586  32.0635748
  36.4766407   6.9769359  49.9668407  36.5592861   6.2591624  49.3389845
  35.6036496   6.8663305  50.3435183 101.1243343  26.2753630  62.8736115
 100.2468204  26.0190558  62.5898695 100.9790134  27.0168567  63.4612370
  46.9275475  53.8586903  71.8878651  46.9835949  53.6312723  70.9597635
  46.2454510  53.2835913  72.2346163  66.0837936  12.1175444  56.2311840
  66.8301821  11.7577183  56.7104149  66.4023399  12.9496920  55.8814764
  80.1879501  20.5396485  75.8743238  79.7850418  20.2281117  75.0638676
  80.5454445  21.3986015  75.6493044  66.7312193  37.6627517  35.6542945
  66.6243792  36.8055987  36.0667372  65.8564901  38.0507135  35.6781244
   2.5272998  93.6508942  82.8846264   3.3782738  94.0763950  82.7796173
   1.9040883  94.3745136  82.9495811  68.3204365   8.7201720  45.3945684
  69.2683029   8.7309945  45.5274630  68.1721687   7.9964644  44.7858858
  97.5305939  53.8426352  15.8894300  97.5458050  52.9693508  15.4977918
  98.2139492  54.3255234  15.4246020  84.4213009  20.2414131  22.4065232
  85.3175449  20.3403759  22.7277589  84.4928169  20.3539515  21.4586568
  78.3683014  25.1431608  37.3466802  79.1408014  24.5958114  37.2056770
  77.6277637  24.5558929  37.1951723  45.8929968  21.4249063  66.5832806
  46.2073612  21.3568544  65.6817389  46.5673399  21.9328475  67.0343781
  15.6414402  88.8671398  42.2673798  15.9703517  87.9737854  42.3671818
  15.8256960  89.2855549  43.1083393  65.6223297  39.9038863   9.8793644
  66.0845184  39.1003752  10.1180744  66.0415220  40.5861378  10.4038072
  86.4982128   6.9070387  55.5275917  86.0238743   7.6666576  55.1896429
  86.0212898   6.6598898  56.3198614 106.6263580  82.6885033  20.7368493
 106.7322540  83.3177090  20.0233197 106.3580418  81.8781567  20.3037524
  54.6861458  18.1046665  40.5251026  55.2433586  18.8716829  40.6571388
  54.1094208  18.0932450  41.2889671  13.3510220  12.3922122  80.7635880
  12.5471270  12.8674793  80.5535793  14.0383720  13.0575240  80.7298088
  61.3477659  20.8764553  89.5097923  61.2200403  21.5541911  90.1735592
  60.7620907  20.1675224  89.7755527  80.5031013   6.0702598  61.7807436
  80.0323772   5.7621729  61.0063171  79.8152018   6.2674576  62.4164629
  69.7806263  30.6528759  40.1846075  70.7041740  30.7710242  39.9625134
  69.7627926  30.6508207  41.1416388  36.7018080  93.7081242  87.7354622
  36.4277172  94.1758060  88.5243797  37.4928045  94.1647339  87.4489880
  35.5580473  84.0593147  33.6205387  36.2880301  83.5859680  33.2214093
  35.4713988  84.8539925  33.0940270  62.5503445  11.2765765  25.1496673
  61.9563723  11.8973672  24.7277045  61.9887447  10.7669020  25.7336807
  35.4236269  96.7975044  34.1808152  35.7627702  96.5658379  33.3162069
  34.9852490  97.6381111  34.0487862  37.0152330  24.8613524  62.4474096
  36.1516881  24.8486400  62.8601599  37.5145268  24.1924787  62.9159689
  44.7171164  19.5454466  68.2183027  44.9813986  20.1191664  67.4991131
  43.7872696  19.3795621  68.0630493  70.9185886  86.9914341  76.0951900
  71.5786982  86.4695072  75.6390285  71.0123682  87.8703499  75.7278633
 101.9366550  25.3017044  49.6871424 102.5841713  25.9374571  49.3825483
 101.0982609  25.6492805  49.3829966  42.6060247  19.1491306  40.8654022
  42.8976870  19.4133639  41.7379522  43.4066772  19.1287088  40.3412104
  43.9032078  10.8978581  88.4932327  43.3415604  11.1630714  89.2215443
  44.7879267  11.1282670  88.7768078  60.6157303  23.9265752  48.1194830
  60.6062746  23.0000687  47.8792238  61.3599253  24.0118885  48.7154102
  55.6624787  38.4729435  91.7755615  55.5509083  39.2288639  91.1990416
  56.5659897  38.5387947  92.0847050  60.2056170  40.8508301  26.4663482
  60.9258127  41.4565802  26.6412997  59.8882198  40.5992317  27.3336363
  83.0613804  21.3746023  76.2725925  82.7815533  20.8705378  77.0366907
  82.4260044  22.0878053  76.2103558  82.7061653  26.8642211  41.3790274
  82.2393990  26.2460375  41.9413567  82.8487682  26.3849521  40.5628157
  37.8395629  38.3398128  54.6827173  37.0637679  37.8226542  54.8993349
  37.6556587  39.2086172  55.0399113  64.1250181  22.4176669  58.4735107
  63.3616638  22.0907712  58.9496040  64.4570160  23.1332850  59.0156364
  94.0006924  15.0689614  65.7110071  94.1556358  15.9980750  65.8812189
  94.3113708  14.9344218  64.8156786  52.9304838   5.3689361  68.5233259
  53.2867384   5.2357739  69.4017220  52.0698404   5.7610750  68.6708260
  18.1485057  50.7436466  64.1493320  17.4488080  51.3915730  64.0665674
  17.7222145  49.9061871  63.9671993  84.9697113  42.3028469  12.5623155
  85.3401661  41.6216135  12.0011365  85.6656456  42.9557037  12.6377356
  40.2524042  91.7159081  64.9069262  39.6577072  92.3275852  64.4728518
  40.6191254  92.2153854  65.6364965  64.9633741  14.0898192  10.0559461
  65.0097179  14.2623377   9.1155618  65.3787470  14.8516941  10.4599822
  34.5751715  84.5338249  25.8126712  35.1082683  84.3673420  25.0352907
  35.2093363  84.7511387  26.4959288  50.3406000  42.2510767  35.3188229
  50.0430775  42.4055815  36.2153935  51.2779951  42.0771790  35.4041529
  82.3005295  18.0069625  40.9840202  82.3311520  17.1314204  41.3696623
  82.9582691  17.9856598  40.2889252  51.4737558  30.9537125  51.0227251
  51.7773628  30.7297587  51.9024420  51.1053848  31.8325710  51.1129856
  27.2745943  60.7543230  53.1020927  26.8652487  60.1690865  52.4647808
  26.5505576  61.2767887  53.4470987 111.4516068   8.2245004   8.0249757
 112.0171452   8.5895979   7.3444629 111.2654018   8.9638007   8.6037636
  33.2054853 101.2287331  22.9017735  33.9831185 100.9057140  22.4466062
  33.2285452 102.1768188  22.7720308  18.8203430  80.2842808  45.8768368
  19.4170904  80.5573082  46.5736723  19.3001807  79.6048927  45.4031086
   0.8628508 103.3801842  65.4282236   1.7108952 102.9395390  65.4819059
   0.8208040 103.7102127  64.5306969  82.2716045  89.4764614  22.8602004
  81.4229393  89.0429115  22.9498887  82.8888035  88.7632942  22.6968217
  57.4219227  27.6864791  38.6055040  57.5643444  27.6556420  39.5515466
  57.5552177  28.6054087  38.3730531  35.7532096  33.0432582  61.6711617
  35.2312827  33.3619666  62.4075365  36.4047766  32.4671960  62.0709658
  41.7574120  13.8745522  46.6770840  40.9139681  13.4658122  46.8714094
  42.2465324  13.8163352  47.4978209  32.0652771  92.0991516  65.3186750
  31.9759583  91.6919231  64.4570398  32.7546477  91.5954018  65.7513762
  65.5087137  18.2792187  29.7918773  64.9137592  17.7164185  30.2873755
  64.9900723  18.5767627  29.0444064  57.5917864  43.4182596  54.3143034
  58.4294224  43.7023354  54.6802282  56.9975758  43.3970594  55.0644398
  80.0886440   4.2901447  66.1064720  79.9840355   3.6610636  65.3926468
  79.9179888   3.7826389  66.8999100   9.4834602  99.6640396  43.6849499
   9.8124546  99.4183922  44.5496178   9.7955364  98.9702797  43.1039715
  67.6423883   1.9024907  54.1696692  68.3195305   1.4122881  53.7033987
  66.8237686   1.6394423  53.7490749  91.1648560  31.8061137  31.4563370
  91.7529869  32.0677543  30.7479024  90.4557991  31.3359642  31.0176682
  66.8570805  12.4379528  52.2579575  67.6829863  12.6067257  52.7114153
  66.3496256  13.2406616  52.3778677  53.9030838  30.3419304  58.3126307
  54.8173952  30.5307722  58.5238218  53.6260033  29.7185326  58.9840698
  87.3098660   3.2401171  73.0048132  87.7076149   2.6482373  72.3662949
  86.4027596   3.3322230  72.7134228  88.4335995  18.5354018  63.5357189
  88.9734840  19.0818989  64.1067648  88.9037991  17.7031171  63.4862089
  59.0681744  45.5098915  67.7412748  58.8408709  46.4082336  67.5013876
  60.0076580  45.4464722  67.5692797  93.0621910  16.0322309  28.6511683
  93.2720852  16.1675906  29.5752120  92.1915054  15.6346488  28.6590767
  73.3660984  11.0163403  37.9739618  72.7410841  11.6769040  38.2727027
  72.9872513  10.1835561  38.2553482  85.3026159   0.6257314  67.2237062
  84.7854908   0.6768960  66.4198446  85.5428178  -0.2980452  67.2955847
  57.3264980 100.1439857  82.0782375  57.1594954 100.5870438  81.2463474
  56.8737888  99.3044758  81.9975948  83.7196827   7.9612893  30.9842253
  83.6935043   8.7869173  30.5006099  82.8284836   7.8491020  31.3149881
  72.2799969  18.7880099  82.1084213  72.0432425  19.4857776  82.7194023
  72.0623684  17.9794693  82.5722408  61.3592148  21.7328954  63.2905769
  61.3830853  20.7774782  63.3438730  60.7740402  21.9978189  64.0002394
  47.7526379 105.0956726  53.5096693  47.6642179 104.8202705  52.5972176
  48.4768867 105.7214832  53.5018587   3.2317033  98.7212753  28.4200358
   3.7926257  97.9933739  28.6879110   3.2519031  98.6997128  27.4632907
  58.9993763  20.0832152  59.2609215  58.8755846  20.7900214  59.8944330
  58.1755686  20.0504589  58.7746048   5.0138891  90.8844185  65.8778477
   5.6881624  90.2162266  65.7549238   5.4359841  91.7020035  65.6139898
  91.9295883  17.2031677  52.7868748  92.7502346  17.6309168  53.0314255
  91.8087101  16.5213013  53.4476900  77.7795029  32.1098876  34.0742183
  77.4825144  32.9285121  33.6768699  78.3717728  31.7297721  33.4254026
  37.6504731  91.6152763  60.9976435  36.9387984  91.6577053  61.6363525
  37.3853850  92.2184181  60.3032541  26.7601705  97.7383709  48.0735874
  26.3085365  97.4015903  47.2997427  27.6106977  98.0309486  47.7461290
 106.3149929   7.3026532  80.4758549 105.9183502   8.1712157  80.5429935
 105.5939293   6.6963291  80.6452084   3.4894186  76.7623758   9.5370144
   3.3587396  77.1311903   8.6634409   4.3064430  77.1558857   9.8433703
  70.1996469  22.9179382  78.5458851  70.0595093  23.8408279  78.3340645
  69.6535206  22.4428463  77.9195738   3.4573326  12.9310536  15.0149608
   2.6068372  13.3528888  15.1372063   3.7394783  12.6999593  15.8999586
  56.8511295 105.3095722  34.9394870  56.2373781 105.2390385  35.6706238
  56.6981363 104.5194626  34.4212651  85.9510517  37.9208636  24.2660832
  85.1406670  37.8120279  24.7637439  86.5109539  37.2022939  24.5600080
  81.4660072   4.3230745  51.0529375  80.5940628   3.9291218  51.0258627
  81.9981861   3.6936909  51.5396643  62.6473951  23.7435293  45.4806995
  62.7739668  23.4178376  44.5895576  62.1828651  23.0374551  45.9300423
  66.5638359   1.0467309  61.5986109  67.0008786   1.5152330  62.3097563
  66.9127996   0.1567811  61.6480637  29.7214127  89.9259663  39.3107104
  29.3288159  90.0805759  38.4515285  30.5575228  90.3908920  39.2791557
  77.4699736  12.4602222  18.3086574  76.5379763  12.6782286  18.3177114
  77.6266050  12.0430326  19.1558003 107.0748329  62.3322392  10.0540543
 106.1745071  62.2511482  10.3688097 107.3411274  63.2139778  10.3145528
  80.9730911  21.6411066  64.6683693  81.2057304  21.9840932  65.5312014
  80.1821232  21.1242080  64.8213959  50.7046843  92.9150105  42.1108484
  51.5941143  92.7553558  42.4265194  50.5249596  92.1830654  41.5207720
 102.7141666  97.7769279  43.1572485 103.5252285  97.3639297  42.8608656
 102.2797585  98.0570793  42.3516226  61.6399384  21.7403984  59.6295166
  60.7540941  21.8541622  59.9738503  61.8345070  20.8138275  59.7703838
  73.5213995  27.5644255  40.3018427  74.0993547  27.4460173  39.5480657
  72.6395750  27.5664091  39.9295425  94.1993427  11.5672100  71.3225651
  93.7120342  12.1379220  71.9167423  93.5343075  10.9928989  70.9429216
  64.3367338  18.3541429  41.8496704  64.5457697  19.0555465  41.2327719
  65.1547194  18.1988442  42.3219109  72.1800423  22.5595331  80.7483768
  71.6419172  22.7240324  79.9740410  72.8504658  23.2422853  80.7235813
   8.7282330  92.6841354  27.9269242   8.9393508  93.6173248  27.8984833
   9.0479022  92.3407173  27.0925951  56.0792971  12.9089689  53.9005661
  56.6202450  12.1575463  53.6577272  55.4714966  12.5649714  54.5551443
  82.3303032   6.7242348  20.3085685  82.7174091   6.8188018  21.1788774
  82.1373367   5.7897776  20.2325106  53.6775732  31.6075110  55.7439852
  54.3770313  32.2547483  55.6541634  53.8674927  31.1626840  56.5699959
  31.7101884 104.2367077  32.8836322  32.4738145 104.5680904  32.4110913
  31.1159086 103.9347553  32.1966910  45.6536198  12.5770223  24.8505211
  45.2225304  12.8138471  24.0293574  45.4240561  13.2836497  25.4540181
  40.6546736  18.2855392  56.1505032  40.5044222  19.2247903  56.0434341
  41.5445805  18.2233667  56.4975262   1.3687712   0.6213637  53.2242489
   1.7436276   0.8505028  54.0746641   0.7230184   1.3072361  53.0544996
  80.2983379   3.5994712  30.3832817  80.4504108   3.2043383  29.5248103
  81.0098267   4.2315918  30.4854274  57.4168873  22.9089952  51.7527103
  57.2608948  23.2060647  52.6491737  57.2918797  21.9607043  51.7894650
  70.6276989  56.1270761   4.8765665  71.1468124  55.9793520   5.6670904
  71.1351824  56.7628479   4.3721062  61.9608259  26.3923049  53.1750393
  61.6149044  26.8149972  52.3889732  61.5534210  25.5261469  53.1802177
  87.3141670  19.2413783  55.1609707  86.9298172  18.7664318  54.4241333
  88.1244278  18.7695539  55.3535938  90.5361557  10.6421411  20.5975938
  90.7013798   9.7004682  20.6443357  91.3884830  11.0248184  20.3894401
  55.9341621   2.9969618  78.0317974  56.4086533   2.3424068  77.5193071
  56.6199636   3.5055453  78.4645271  99.3214798  26.3837767  39.3030334
  99.1080952  25.9563088  38.4735942 100.0818539  25.9038043  39.6311808
  84.7311401  10.3778446  21.6736388  85.4571056  10.3500581  22.2968888
  83.9996624  10.7395828  22.1739459  50.5753565  94.9142838  48.8325691
  50.5413914  95.2735233  49.7191525  50.2653503  95.6266880  48.2734442
  25.9198356 100.2452469  34.4479442  25.1687503 100.7262325  34.7954369
  26.6820240 100.7302952  34.7642159  91.6971588  31.6975117  56.0276937
  91.6376114  30.9607911  55.4194736  90.7903481  31.8767738  56.2762737
  51.2416363  85.3406429  80.3307819  50.9744835  86.0306644  79.7235584
  50.6232691  84.6278191  80.1703644  80.8619881  27.7199078  68.3120871
  80.9692860  27.8506708  67.3699522  80.0434208  27.2305965  68.3942890
  94.2709732  27.0332026  61.5834808  94.5049095  26.6168046  60.7539558
  94.1384125  26.3035822  62.1887207  37.2401047  99.0703201  77.1811676
  36.6456962  98.3887291  76.8675661  37.3763919  98.8625145  78.1055450
 102.1214390  27.4410176  40.4566479 101.4163399  27.7603626  41.0197544
 101.9335365  27.8213000  39.5985651  82.4655151  32.3411107  80.7003689
  81.6054916  32.6852202  80.9415531  82.9801369  33.1169486  80.4779339
  83.3899212  25.9606624  58.0375290  83.0535698  26.1603332  58.9111567
  83.2460976  26.7633343  57.5362730  72.5940084   6.9732320  78.5107899
  72.6629114   7.5475532  77.7481365  73.4949303   6.8751329  78.8189220
 104.6531582  40.8480597  62.6075888 104.2977810  41.2996435  63.3730984
 104.5200253  41.4611292  61.8846416  10.8299851  20.4369497  66.3341570
  10.6846201  19.5300031  66.6035080  10.9163451  20.3930736  65.3818703
  68.1496525  14.9735129  32.8019881  67.6358843  14.1718554  32.9000831
  67.7474308  15.4265904  32.0609260  64.5551443   3.8557518  53.8894606
  65.2896404   4.4075668  53.6206770  63.8422155   4.1022128  53.3002043
  93.2056332  35.0182104  70.2035093  93.2640743  34.3284655  70.8646202
  93.5851097  34.6280384  69.4161129  72.1178389  30.9457493  45.7246161
  72.3112535  30.4165220  46.4983988  72.7328444  30.6333899  45.0609636
  85.5525398   4.5549226  40.1241922  85.0688457   4.2559484  40.8941841
  86.4525890   4.2693046  40.2809334  37.1011376  97.6387310  59.5067263
  36.5735912  98.4334373  59.5864296  37.1337676  97.4662781  58.5657501
  52.4802732  25.3145719  81.6792202  53.1915236  24.6884561  81.5438175
  52.7512217  26.0935736  81.1934376  36.4866066  93.0227184  33.5914993
  36.8331909  93.3709049  32.7699924  35.5739212  92.8108120  33.3957100
  26.1727071  96.7565155  25.9894443  25.5734825  96.0459900  26.2181687
  27.0311165  96.3368607  25.9323764  94.9274158  44.3061352  57.9121637
  94.3504429  43.5758734  57.6884460  94.7980499  44.4344091  58.8518667
  98.1244183  22.0127654  63.2260847  97.7849483  22.9012203  63.1182098
  97.3956203  21.5224290  63.6064148  79.5215845  46.0131359  18.1017792
  79.5543098  46.4707661  17.2616982  79.2819738  45.1143932  17.8757620
  81.7874146   8.3228552  60.5998898  81.2038708   7.6346272  60.9193611
  81.9338989   8.8849276  61.3607121  86.4021397   7.3536980  39.8732138
  87.1058750   7.5829446  39.2662287  86.3938522   6.3965565  39.8798132
  55.6368446  27.0431995  54.3209839  56.0826826  27.7798200  54.7391367
  54.7140360  27.2971988  54.3091726  63.4093142   9.6433353  57.7167559
  63.1915951   8.7423003  57.4780798  63.8566875   9.5664471  58.5594749
 105.0435829   1.1096993  67.0398188 105.5904198   0.3241286  67.0310974
 105.6666946   1.8356362  67.0084381  33.3084226  96.8784142  46.1937189
  33.2978320  97.7486706  46.5921879  32.5989056  96.4066315  46.6298819
  99.5496655  49.6691656  33.9596081 100.2573109  49.2140293  34.4160175
  99.4497204  50.4940367  34.4348216 109.3902683  42.7195072  65.5466652
 108.8259029  43.3522415  65.1023912 109.0531921  42.6851034  66.4418888
  45.8050060 101.3664818  27.3429751  45.6714821 100.4240990  27.4445319
  46.2047005 101.6420364  28.1679320  57.3421192  14.0035582  84.6639824
  57.0108938  13.5151756  85.4176426  58.1880617  14.3455696  84.9531937
 103.7856007  51.1338758  46.1042643 102.9069614  50.8358860  46.3396931
 103.9682102  50.7044888  45.2684927  88.9214420  45.4015541  57.6052809
  87.9916477  45.1796055  57.5557184  88.9912224  45.9710836  58.3714390
  92.6568604  57.9773664  63.7679195  92.3089504  57.0879221  63.7040424
  93.4506607  57.8867722  64.2950821  89.2389011  30.6602597  71.2206364
  90.0370026  31.1870003  71.2630749  89.4721413  29.9163532  70.6652689
  51.5167952  38.0629778  41.9933844  51.5463495  37.2260976  41.5297127
  51.9903326  37.9015207  42.8094244 100.0765038  10.5471492  45.5336523
 100.1866150   9.6642196  45.1807499 100.0461578  10.4238188  46.4823866
  39.2027831  96.1979389  52.4664116  38.8405704  96.8496323  51.8661308
  38.4548283  95.6504631  52.7052879  83.6220264  16.3435948  56.7543077
  84.3946552  16.0475647  56.2730074  83.9734459  16.7351258  57.5539589
  85.8235931  91.9680882  62.4807739  86.5448952  92.3675823  62.9669333
  86.2511444  91.4701843  61.7839813  94.1666889   3.9700511  39.6998739
  93.3979511   3.6511469  40.1727152  94.1375446   3.5129741  38.8593602
  66.4090347  96.3013077  41.3253164  67.3410225  96.2718296  41.5415668
  66.1710596  97.2239494  41.4165449  51.5489578  16.6092694  43.5059166
  52.1879148  17.3033583  43.6678028  52.0777702  15.8211398  43.3816481
  62.9690313   5.4158795  74.5408392  62.1462488   5.2972955  74.0662956
  62.7940178   6.1351597  75.1476669  61.3645220  26.3451672  80.3325367
  62.0133209  26.6074944  80.9855843  61.6117191  26.8260884  79.5426989
   4.9878880  13.5624635  58.4342575   5.3865963  13.4588540  59.2982721
   5.6774861  13.9531350  57.8975391  47.5430775  91.6006851  63.6467075
  47.6702595  90.6674957  63.8176346  48.4277248  91.9438457  63.5206938
  51.6149139  92.4990845  59.1189384  51.7123175  91.6959476  58.6073542
  50.6878090  92.5210667  59.3560600   1.2293827  36.2914491  58.5055017
   0.6464917  37.0156360  58.7335873   0.6831824  35.5096078  58.5868883
  72.9510593  26.8656135  72.5644636  73.7074900  27.2038651  72.0852661
  73.1487894  27.0472598  73.4832335  77.7790499  21.2265038  63.9174891
  78.2666016  21.8137407  63.3398438  77.0976305  21.7788076  64.3007135
 100.2989960  38.6894846  59.7333956 101.2436867  38.7411833  59.8787117
  99.9177933  39.1869926  60.4568624  88.0594635  42.1407366  25.3907609
  88.2037163  42.9998016  25.7875323  87.7355289  41.5967035  26.1086202
  99.6460915  62.4022198  47.2588539  98.8430786  62.1231842  46.8189096
 100.3415012  61.9093895  46.8232489  84.4811440   4.3526018  15.6394517
  83.7158489   3.7831691  15.5600452  84.4373322   4.9212956  14.8707509
  16.5192544  42.3495817  49.5316172  17.2786522  41.8011236  49.7284508
  16.4429843  42.3197174  48.5779285  62.1268415 103.5294151  66.2625408
  63.0320024 103.5299492  65.9512234  62.1894646 103.7898350  67.1815014
 101.6319370  45.4087353  71.2333488 101.3741589  44.4985104  71.3791990
 100.8924198  45.9221506  71.5585327  71.1196232  35.0637364  30.5619931
  70.4514837  35.7429981  30.4702282  71.3813353  34.8622751  29.6635771
  46.8136168  25.1382184  57.1092653  47.3853302  24.4106746  56.8642044
  46.2314558  24.7716808  57.7748251  78.6451674  22.9719138  39.7416735
  78.1632280  23.2956553  38.9806509  78.1629324  22.1921039  40.0165844
  94.7820282  19.4141924  59.3360758  95.4393959  19.5115304  60.0250149
  94.4861889  18.5071778  59.4137383  58.3087015  38.2096386  30.7767415
  58.9963341  37.6084900  31.0631227  57.5016689  37.6991200  30.8423305
  79.5160484   4.8615626  75.4454517  78.9195490   4.5524600  76.1272669
  79.0220642   5.5395240  74.9843836  85.2985477   7.5340492  35.5531192
  85.4410744   6.6529679  35.2072644  84.5025921   7.4588966  36.0794520
  82.9542637   4.6247372  60.7369757  83.5916901   4.8623300  61.4103746
  82.1525669   5.0797278  60.9948635  50.3950691   8.7421906  81.8807316
  50.2162790   9.1816700  81.0493946  51.0552406   9.2906809  82.3044777
  50.6100893  32.8326368  54.6009111  50.3706360  33.0477285  53.6994505
  51.1300755  32.0324707  54.5261860  59.6916389  25.8114815  30.7032633
  59.3904352  25.8634543  31.6103506  58.9725494  25.3861380  30.2361131
   0.1218806   4.0900028  46.1222267  -0.4331186   3.5135895  46.6475391
   0.5852081   3.4998989  45.5278063  84.3978214  29.0059280  42.0526361
  84.0124416  28.2079935  41.6906738  84.0530109  29.7093105  41.5025568
  60.4198217  24.6236444  60.3925800  59.6493292  24.6956325  59.8292065
  60.5648947  25.5132341  60.7147837  56.5265465  20.2857089  51.9264126
  56.0549545  20.1810384  52.7527714  55.9589052  19.8766291  51.2732124
  81.0378838   5.2461916  70.8626747  81.8303299   5.7103926  71.1324501
  81.0780430   5.2395231  69.9063444  97.5201225  25.8272505  75.2993345
  98.0526066  25.1645422  74.8594332  97.6770592  25.6801605  76.2320518
  80.9558868  16.5265596  73.6627245  81.0579777  17.3658228  73.2138968
  80.3496361  16.7108262  74.3801832  67.3473644  28.4847951  71.4275217
  66.8444395  29.2818666  71.2602663  68.0436182  28.4986758  70.7708073
  23.5826659  66.2894392  36.1417198  23.1463265  67.1398258  36.1934638
  24.3268394  66.4371967  35.5581021  79.1580153   7.2064239  34.9339247
  79.2610836   6.3162255  34.5975375  78.9748383   7.7360004  34.1578913
  97.8568172  62.6641417  73.3759260  97.6996994  62.6278162  72.4324083
  97.9148197  63.5989809  73.5732651  76.7947435   4.0083772  45.4682541
  76.8588543   4.9624291  45.4245949  76.1065912   3.7856266  44.8413086
  94.5669842  28.6249447  38.7216139  94.2711258  29.2634749  38.0727839
  94.9248886  27.9045510  38.2028008  71.9531775   1.2101221  51.1573696
  71.4139414   1.9073203  50.7840443  72.7364206   1.6581319  51.4768219
  81.0881615  33.4682107  61.8030405  80.9370041  33.8215780  62.6796913
  80.3644657  32.8575945  61.6628790  20.2148724 105.4984856  67.5098515
  19.9765193 105.8183861  66.6397476  19.8269451 104.6247673  67.5583744
  83.1525326  41.9318867  69.8093128  82.3138428  42.3911858  69.7660208
  83.1576443  41.5236807  70.6750917  87.3251820  32.3386455  22.2532129
  86.5393925  32.6724410  21.8203878  87.0477295  31.5127873  22.6497126
  64.3046856  26.8203187  44.8834038  65.0094891  27.3670435  45.2306414
  63.5479259  27.0285821  45.4312849  70.4479742  38.5553432  32.9873180
  71.1688232  38.0657887  33.3834791  70.1575518  38.0065107  32.2588468
 111.0680199  31.6873598  40.3714991 110.1212025  31.5738559  40.2885342
 111.2430191  31.5653491  41.3046217   1.2733023  57.9131413  45.2454329
   0.9692697  57.4288988  46.0130930   0.6830192  58.6643887  45.1868916
  68.8233709  33.2969928  66.1308146  69.4301510  32.5909972  66.3535643
  69.2629242  33.7783551  65.4298735  61.4402103  88.8514328  81.2617016
  61.6966963  89.7092724  80.9232521  60.5140972  88.9485168  81.4833355
  70.8483028   8.1021291  45.8640051  71.1750078   8.4105814  45.0188112
  71.6234541   8.0748147  46.4249182  81.1015034  23.3105779  44.1223669
  81.9764519  23.0914497  43.8019133  80.7166386  23.8407087  43.4244633
 103.4358597  32.0963788  75.8062792 104.2702961  32.5620222  75.7503986
 102.8168583  32.7518654  76.1278486 103.3435249  52.4917555  76.2940121
 102.9151249  51.7729092  75.8292913 103.8934517  52.0602179  76.9479132
 108.7205029  30.9306431  24.6373367 108.0667877  30.2478456  24.7879314
 108.8192940  31.3593221  25.4874563  47.6794243  32.4813294  40.4874372
  47.7929020  31.9250917  39.7167540  47.7054882  31.8741679  41.2269688
  11.0677648  43.7628794   5.6210369  10.8192074  43.0682373   5.0111806
  11.2315214  43.3086920   6.4475524 104.7987175   9.2037815  30.2882552
 105.5611324   9.6293604  30.6804776 105.1532459   8.4245205  29.8601270
  86.5203667  16.4206588  45.6311846  86.5107918  17.3177361  45.9649420
  87.0613003  16.4642215  44.8426962  55.2363873  27.4934125  45.6674051
  55.4413366  28.1092119  46.3709784  55.7633400  26.7192864  45.8656025
  96.0449886  29.0984225  31.9568372  95.6558990  29.3103123  32.8053308
  96.9495964  29.4037867  32.0252109  57.9428959  19.6836877  43.7860060
  56.9910097  19.6926379  43.6857224  58.0836439  19.5712662  44.7261047
  98.3561707  21.7931962  46.2804890  98.1594944  20.8890319  46.5255165
  99.0376568  22.0651078  46.8952036  55.2020788 101.9620895  69.4743490
  54.2479849 101.9860649  69.5475769  55.4300261 102.7860260  69.0437651
  89.0018845  32.5203776  28.6440706  89.4552517  31.6889501  28.5047364
  88.3655930  32.3334837  29.3343115  78.1919909  14.1753483  53.1029654
  78.4182215  13.2566118  52.9581308  77.7521610  14.4437528  52.2962761
  91.8213940  19.1712546  44.0270710  91.5717411  19.8445332  44.6600056
  92.1911907  18.4671414  44.5597076 108.7383270  16.9086218  44.2814970
 109.5782948  16.9694531  44.7364616 108.1007862  16.7450905  44.9764919
  92.5761509  37.2264862  71.4607334  92.6387501  36.4556479  70.8967113
  93.3025646  37.1320605  72.0768785  91.1239624  19.6335554  75.7136345
  91.6512012  18.8786423  75.4521751  90.2948380  19.5190120  75.2492476
  24.3419027 104.5735073  10.7039332  24.6185970 103.7543774  11.1146677
  24.4156480 104.4070911   9.7641999  92.0854282  66.7285824  11.6987491
  91.2910271  66.2712193  11.9744051  91.8436050  67.1540642  10.8761179
  80.3498936  37.5152874  76.9433594  80.4836369  38.1345963  77.6608562
  80.9832191  37.7808499  76.2765646 110.1241875  13.7755442  67.0569754
 109.6027946  14.5345807  66.7957401 110.9069538  14.1502059  67.4608803
  91.2481308  58.5702229  58.5388756  91.7293167  58.2919168  59.3181276
  91.9283867  58.8264751  57.9161310   7.1492004  27.1963978  45.2151394
   6.6693944  28.0119109  45.3599072   7.7421248  27.1312261  45.9637547
 102.6670456  67.7215481  88.2890987 101.7947960  67.3292732  88.2499695
 103.1119061  67.2467756  88.9911842  72.3148251  14.9431145  41.1189318
  71.4164257  15.2629018  41.2016582  72.8552914  15.6570840  41.4571238
   5.2614909  46.7056513  36.4696407   4.4158459  47.1382046  36.5880275
   5.2955049  46.4976835  35.5359268  82.2943306  52.6441240  64.3156958
  81.7338085  53.3734941  64.5803881  82.7201176  52.3630905  65.1256084
 107.7190781  30.6756830  50.6643152 107.4547195  30.1743984  51.4357138
 107.2188854  30.2900219  49.9450779  87.2320080  59.5569563  55.3114223
  87.1007156  58.6930180  54.9207830  87.3286915  59.3841791  56.2479258
  65.4171944  21.7905712  70.7602215  65.5482197  20.8463430  70.8468151
  65.4898024  22.1254182  71.6540003  79.0540695  61.6047716  38.7844038
  79.3704414  61.9876528  39.6026611  79.2649460  62.2578287  38.1171107
  90.5973721  43.4963179  79.9702787  91.4739132  43.5681581  80.3481007
  90.7420063  43.1312323  79.0973425  99.6986866  50.0339603  53.8924837
  99.7076035  50.8199549  54.4387150  99.1005039  49.4368362  54.3417597
  42.0554399  83.7577534   6.3515198  41.2721777  84.2726994   6.5453374
  41.7470837  83.0620575   5.7708651  95.1896572  42.3601151  71.3269281
  94.6649647  42.5007057  72.1150637  95.3696918  41.4200068  71.3235950
 108.1784344  30.8950496  54.0943193 108.0704784  30.5059886  54.9621964
 108.5565948  30.1943302  53.5630751   8.4577399  31.9113159  69.1512823
   9.1146088  31.7969322  68.4644985   7.6387066  32.0563364  68.6775923
  10.6893480  34.3610358  48.3650875  11.6062772  34.2594123  48.6203241
  10.3057134  34.8976445  49.0587091   0.0996279  34.0191460  65.1965809
  -0.3609746  33.2783580  64.8024893   1.0159005  33.7437177  65.2251482
  84.1350937  46.3422298  79.3481159  83.4428120  45.7058334  79.5269299
  84.8570538  45.8192015  78.9996243 104.1440678  24.3453240  80.2387333
 103.5977936  25.0002766  79.8041725 104.3994808  23.7440920  79.5390797
  92.9643917  58.0260611  60.9063530  93.8530922  57.7137470  60.7363510
  92.8701687  57.9742670  61.8574953  84.2902088  33.9025140  69.7272539
  83.5914898  34.4643140  70.0625229  83.9458466  33.0137324  69.8150873
  82.2076607  69.2419338  47.6931810  82.8124619  68.6281204  47.2764254
  81.6133308  68.6869669  48.1981659   0.5566709  41.1464073  91.6100531
   0.0399415  41.5086986  90.8903565   0.7682912  41.9026520  92.1573590
  79.0704441  49.4476032  64.6272850  79.8373413  49.4416094  65.2000570
  78.3273077  49.5429087  65.2230215   6.2081790  48.2358503  80.2213001
   6.9103694  48.7303352  79.7986364   6.2352073  48.5158730  81.1362267
 100.8108616  42.7055311  57.8430796 101.2805176  41.8714905  57.8489923
  99.9007797  42.4692011  58.0223274  90.5866528  38.9366722  72.7457476
  90.0503445  38.7041354  71.9877672  91.2915897  38.2891464  72.7480841
 100.6429386  53.5239267  59.9967813 100.5595493  54.4770861  60.0245047
 101.5839386  53.3636522  60.0678968   8.9525253  78.2027340  14.0852356
   9.2831683  77.3140478  14.2161834   8.4646338  78.3971024  14.8854947
  35.2220774  52.2603035  48.8535213  36.0857034  52.5655937  48.5757065
  35.3478932  51.9777584  49.7593737  96.4895153  55.8126354  58.1922531
  96.9118118  55.4153061  57.4306583  96.6600704  55.1998520  58.9075470
  88.5157490  33.8314080  67.3807907  87.6059914  33.5348773  67.3553467
  88.4667397  34.7259831  67.7177858  85.7207298  43.2485056  63.0025864
  86.1292362  43.1124544  63.8574839  85.1299572  42.5026608  62.8980112
  84.5069313  16.4536023  39.0895057  85.1821423  16.7179358  38.4646463
  84.0259552  15.7573521  38.6421442  98.5573006  59.0811443  38.6613631
  98.8014698  59.4807100  39.4962025  98.8854408  58.1838751  38.7202215
  99.1548157  35.6448030  50.1668930  99.3249512  34.7719741  49.8126936
  98.4592915  35.9972095  49.6116590  49.1117859 103.6707783  91.1231232
  49.9531174 104.0237236  90.8335876  48.8831997 104.1954994  91.8903542
  89.3910885  15.1403344  65.1266670  89.5592022  14.2461407  65.4239655
  88.4642792  15.2856696  65.3167248  83.2273197  17.7880025  44.0696239
  83.3988285  16.9837368  43.5797548  83.9886379  17.8872168  44.6412754
  98.3899498  68.6660051  15.1210666  98.5649490  69.2043018  15.8929765
  99.2318726  68.6154222  14.6684694  77.0905447  40.7047033  55.7728386
  76.5396261  41.4863300  55.8149862  77.8629017  40.9277582  56.2924051
 109.2232800   1.5905510  57.1882820 109.0361786   1.4637674  58.1184196
 108.5970592   1.0232869  56.7385149 111.9653416  39.5936060  43.0523252
 112.0086288  38.8743830  42.4221849 111.8365192  40.3752947  42.5151062
  21.1431789  32.6538515  11.0682702  21.9742131  33.0009627  11.3925052
  21.0962939  31.7685270  11.4291489  91.7939472  69.5574045  49.3728352
  92.3795128  68.9894629  49.8736238  92.3797703  70.0963783  48.8412809
 102.0523357  38.4746122  31.7361736 102.5895500  37.8524995  31.2456489
 101.2451363  37.9964519  31.9259644  74.7937965  37.1774888  55.3626251
  75.6537008  37.4916935  55.6420326  74.8169565  37.2339201  54.4073677
  84.3881607  49.6118164  58.4607601  84.2537403  49.8596716  59.3754864
  85.0892735  50.1883411  58.1569433  81.3702488  44.3764782  73.8481426
  80.4953861  44.4221640  74.2338419  81.2306976  43.9919472  72.9827547
   7.7368307  31.4377666  82.8462982   8.5371166  31.5857697  82.3424435
   7.0876807  31.1760187  82.1933651   1.4351289  13.0459142  62.7842999
   1.3120236  13.5247922  63.6039019   2.3789461  13.0774105  62.6279354
  17.8761816  89.3135738  39.1598344  18.6099017  89.6594715  38.6516643
  17.4623871  88.6751461  38.5789561  81.4320278  47.8628111  64.9884319
  80.9699059  47.0245743  64.9940395  82.1383476  47.7426672  64.3536711
  86.0138702  52.8243876  49.1981888  85.4272079  53.4531450  49.6185684
  85.5892277  52.6206875  48.3648729  95.8733463  55.4347563  77.1941376
  96.4191532  54.6485281  77.1809626  95.1298523  55.2009010  77.7498007
  80.1004124  38.0952311  66.5904999  80.5419064  37.9233241  65.7587767
  80.3049374  37.3330569  67.1322441 110.4990959  50.1372290  84.0835285
 110.0172615  49.3113184  84.0394306 109.8229122  50.8024359  84.2120171
  17.9862797  85.8561516  14.3887055  17.6259792  85.0251007  14.0792382
  18.7097061  85.6045914  14.9628162 108.9236546  36.0432720  89.7411537
 108.7522602  36.9001961  90.1317120 108.1132030  35.5521512  89.8760509
  74.1234255  51.9205856  60.1403904  73.2574654  52.1529722  60.4755688
  74.1513634  52.3030901  59.2633820  78.0105734  53.9622021  56.1328220
  77.7181292  53.3674240  56.8234348  78.9661026  53.9360571  56.1829615
  84.4214439  41.7005348  66.4576435  84.9598885  40.9685898  66.1566877
  83.5895920  41.2987614  66.7082930  81.7512798  35.8192682  60.3061247
  81.6322327  34.9270821  60.6317949  81.7652035  36.3621116  61.0943890
 102.0481110  68.2201767  42.5324583 101.2331486  67.7602577  42.7338219
 102.6752758  67.8887177  43.1751299 101.8008614  32.6035571  62.4521255
 102.1575928  32.8996468  63.2895660 101.3333511  33.3648014  62.1083593
  66.5143681   8.2449490  31.8254495  66.3968086   9.1682851  32.0487452
  66.9446230   7.8660601  32.5919700  88.1029797  61.3201189  63.6023951
  87.4065208  61.7324448  63.0913496  88.2688904  61.9325781  64.3190527
  80.5532265  61.3548374  72.8395367  80.1343632  62.2080088  72.9530478
  79.8442411  60.7224751  72.9565716 103.3645821  24.6271753  40.3676128
 103.9045334  24.7405767  39.5854211 102.7980614  25.3985929  40.3814745
  92.9971600  45.8597326  44.3443441  92.4936390  46.1528540  45.1038074
  92.4861717  46.1537266  43.5902262  14.0335572  61.7727947   2.7474436
  14.8330140  61.7911863   2.2213623  13.4072769  62.2985744   2.2498868
  21.5902090  38.4219956  56.0590363  22.4403477  38.7156367  56.3865566
  21.1331177  38.0986500  56.8354034  88.3960533  47.0350647  26.6259718
  87.6489258  47.4787092  26.2244678  89.1107273  47.6691675  26.5677524
  94.4346237  91.5898800  36.4795494  94.8658657  90.8164406  36.1161733
  93.8994026  91.2507915  37.1970320  75.0121689  23.8834810  26.0171103
  74.2449665  24.2477489  26.4586329  74.6766472  23.5615635  25.1804352
  64.8110914  76.2843752  90.1804829  64.7184181  75.4220819  90.5855656
  64.3647575  76.8806553  90.7816982  23.4630394  93.4372425   3.1025457
  23.3357167  94.3828201   3.1794548  23.7399435  93.3058262   2.1957454
  80.7535267  55.5602789  46.5336323  80.9780884  56.4815569  46.4030218
  80.7078171  55.4573345  47.4841833   1.3553658  54.0463734  49.3479586
   1.4248911  53.0937433  49.2855597   0.4139019  54.2189550  49.3383169
   3.4595481  34.8535681  35.7487369   2.8361392  34.1280603  35.7136750
   3.8374153  34.8024487  36.6267085  72.3292112  72.9765224  83.6870956
  71.6017342  73.3647251  84.1732121  72.7774191  73.7232399  83.2899094
  82.8941441  19.3496072  69.5827484  83.3176613  18.9317822  68.8328934
  82.8272820  20.2722096  69.3366432  86.3989258  17.7289748  61.1484146
  86.7966080  17.9715776  61.9846153  85.4672337  17.9161608  61.2630320
  82.3505402  77.5975847  88.8884449  82.0596790  76.7645359  89.2594624
  82.7915096  77.3560524  88.0739212  74.7501898  76.1910486  49.8443460
  75.0970268  76.1779213  50.7363987  75.4378796  75.7884455  49.3140364
  11.2754261   7.6989692  79.4968367  10.3235483   7.6019514  79.5241976
  11.4414692   8.2094377  78.7043190   3.7728283  58.4889555  19.6715593
   4.4763216  59.0556765  19.9880350   3.9983198  58.3148098  18.7577438
 108.6359978  73.9827681  81.4701748 109.5303154  74.1292191  81.7783737
 108.2097244  73.5125113  82.1866798 104.3321133  96.4772224  16.5661979
 104.5759392  97.3781204  16.7786860 103.5761356  96.2956429  17.1245515
  86.6557217  26.2564778  59.9204636  86.5467167  25.9365511  60.8160067
  85.9325027  26.8710566  59.7959948  14.9564981  39.5528102  64.7388315
  15.6647348  39.1817498  65.2650928  15.3314459  40.3472900  64.3587637
  78.0902767  35.3057504  55.9048939  77.6368523  34.9680281  56.6772795
  77.8676462  36.2364721  55.8843327  77.6218939  38.0367422  55.6787920
  77.5290680  38.9862084  55.6005096  78.2175732  37.7950430  54.9695778
   3.1488356  27.5442743  63.8077259   3.1162873  27.8798842  64.7035694
   4.0200880  27.1557426  63.7290192 106.3654900   5.5915999  88.4851933
 105.5077553   5.7000989  88.0744076 106.3706684   6.2276584  89.2004776
  89.0313721  55.8111048  69.2368364  88.1196785  56.1023235  69.2517614
  89.2643929  55.8009243  68.3084869 102.4564838  31.2776589  69.6398687
 102.4976730  31.9224930  70.3460741 101.7544270  31.5912867  69.0698004
  93.8528824  30.7875156  30.7977915  94.2513752  29.9275327  30.9314394
  93.0983543  30.7959938  31.3867235  95.5416584  41.7616558  51.6583061
  95.0904274  42.2250986  52.3638916  96.0459232  42.4405670  51.2099409
 100.6167889  37.6168633  68.2857561 101.1656857  37.3244452  67.5581360
 101.0251522  38.4303236  68.5819817  86.0597610  62.8846550  62.7856779
  86.0331440  63.4681129  63.5440350  85.4630661  63.2857895  62.1537924
  96.8741131  44.9662590  62.6707554  97.1045876  45.8191156  63.0391979
  96.0241508  44.7592878  63.0592823 110.3742790  30.4984498  47.5684357
 110.6652641  31.2999249  48.0034018 109.4205856  30.5747557  47.5387669
 101.8904781  22.2371030  74.9317074 102.3365402  22.5547886  74.1466379
 101.6287041  23.0318284  75.3965902  16.7098510  91.2637711   6.7575783
  17.0882988  90.8496571   7.5331569  17.4337304  91.7576408   6.3724554
  96.6146946  51.1541986  42.4723864  96.0712147  51.9209003  42.6541281
  96.7425537  50.7431555  43.3273315  16.8452489  28.4357667  60.4878664
  17.1561539  28.2956290  61.3822556  17.3187780  27.7883697  59.9654865
   4.3813401  22.6384759  55.5837345   3.6766976  22.9929447  56.1260080
   4.1776064  21.7064929  55.5054283  90.8798313  29.5481777  54.3404865
  90.0097179  29.6842551  54.7154665  90.8135796  29.8932457  53.4501123
  95.0230694  16.7672372  43.4884501  94.3727875  16.3009334  42.9631662
  95.4540920  17.3558557  42.8687859  78.3449602  45.0152445  73.2450342
  78.7874651  45.7808161  73.6115313  77.8383684  44.6591568  73.9749670
 108.1072998  56.4817190  66.7806721 107.2577858  56.8592834  67.0087194
 108.0754280  56.3771534  65.8297348 100.3584957  28.1331730  64.9126768
 100.3734398  27.9560924  65.8532381  99.4820213  27.8688812  64.6330929
  90.4627323  12.2331583  88.1642246  90.1612282  11.3970470  87.8089142
  89.7832012  12.4870145  88.7887383  94.9604321  39.2277479  74.4418049
  94.3555450  39.4202280  75.1582575  94.6828938  38.3709216  74.1176844
  81.5999031  29.4942617  86.0310078  82.2099113  28.7567067  86.0425282
  81.9406509  30.0763202  85.3518009 100.9663105  69.6414375  75.2275419
 101.2695694  70.0989246  76.0117388 101.7504787  69.2168713  74.8796225
  86.5731621  38.1273961  64.5544720  87.1793461  37.4178576  64.3415785
  85.7194710  37.7001476  64.6245432  77.5802517  54.4974041  31.7758274
  76.8377113  55.1006174  31.8074226  78.3426094  55.0623703  31.6499090
 101.6794395  28.6128688  88.5912037 102.4634552  28.9023685  88.1245804
 101.4420986  29.3565488  89.1451359 105.2588081  27.7106547  14.3538809
 106.1399078  28.0846715  14.3539906 105.2686882  27.0742059  15.0687695
   0.5736586  36.8667340  52.3963404  -0.2491079  37.1102762  52.8205729
   1.2438316  37.3531675  52.8764248  80.9300995  77.0547295  58.8654184
  80.9168816  76.8018389  59.7885132  81.3027000  76.2968922  58.4147739
   0.9983047  20.6809545  33.3112049   1.0161021  20.6159163  32.3563838
   0.1848590  20.2453971  33.5658193 101.1536884  44.9932718  59.2415762
 101.3726616  44.3637609  58.5545540 100.2522945  44.7802925  59.4831371
  72.1453714  24.0299845  33.2850361  71.8214369  23.4295154  33.9564061
  71.5178204  24.7527623  33.2872152   0.3983053  43.0668402  48.1640148
  -0.2634693  42.4932766  48.5504246   1.0449249  42.4684095  47.7898502
  93.1050777  25.8446002  66.8374777  92.5882912  25.0936484  67.1294260
  93.6538887  25.4986000  66.1336899 104.7984409  65.2916431  55.7589769
 105.6274319  65.6888771  55.4921246 104.6918106  65.5517006  56.6739798
  79.9602604   6.9710112  64.8815680  80.8685780   7.2526622  64.7726154
  80.0251770   6.0689861  65.1952028  90.7456684  46.9237852  73.7020111
  90.0753784  47.6041508  73.6383533  90.3300285  46.2245417  74.2065239
  19.8750079  24.5222735  56.1013222  20.7776380  24.2392659  55.9550333
  19.7890580  25.3244829  55.5862474  95.8401394  23.0183887  76.9044399
  96.1639595  22.9569387  76.0057735  94.9710941  22.6183319  76.8737650
  74.4126034  24.0177155  39.7362494  74.9857664  24.4702482  40.3550625
  74.2384243  23.1706381  40.1465559  77.5721169  16.8414998  21.7274761
  77.3711205  16.5338445  22.6113224  78.5271454  16.9024432  21.7064810
 102.8297997  13.7007427  71.7770195 102.8247643  14.3073606  71.0366011
 102.4501610  14.2012095  72.4992657   9.3123704   5.9382027  64.4014215
   9.9061394   6.6836405  64.3120193   9.1692245   5.8577704  65.3444338
 104.0536404  33.9689708  38.0650449 103.6835957  34.1273546  38.9334965
 104.9708462  34.2311430  38.1440663 106.2404346  34.8449922  39.3682647
 107.1915436  34.9460435  39.4057775 105.9588528  34.8872924  40.2821302
  90.1527500  21.0577941  59.3533516  90.6754875  20.3196120  59.6665001
  90.2209759  21.0121179  58.3996820  98.9730835  12.6581645  24.2569017
  99.0001583  12.9933691  23.3607221  98.0896091  12.3025584  24.3530273
  82.5857925  52.2618532  45.1184940  82.0406342  51.6293335  44.6505737
  82.4155521  53.0954695  44.6799421  76.6581297  63.0637407  61.8171167
  76.6427469  62.1560431  61.5136766  76.1092567  63.0634594  62.6013184
  90.5932808  53.9734697  45.7064199  89.9466896  53.5018444  46.2315035
  91.4371872  53.7151909  46.0770178  70.5151320   2.3010099  60.7921171
  70.2199411   2.9702684  60.1747131  69.8230696   2.2621804  61.4522457
  37.0756078  42.3344088  45.0721884  36.2337375  42.6353598  45.4141140
  37.7083230  42.5727224  45.7497644  37.7125502  93.2657528   9.2012525
  37.2464633  92.7085876   8.5779035  37.4233913  92.9580402  10.0602841
 100.9015942  42.9226875  77.6362610 100.0652504  42.5337744  77.3802900
 101.2337875  43.3257484  76.8341255  95.9739685 102.9010868  77.8848267
  96.6306686 102.3050880  78.2450533  96.4243221 103.7432957  77.8208303
  80.1699066  59.0835285  53.0999184  80.7929897  59.6661901  53.5340881
  80.5984402  58.2276344  53.1054974   8.6056572  86.6074657  34.8509407
   8.7996477  87.1172810  34.0643692   8.6994612  85.6958199  34.5746636
 106.8543816  69.3750238  60.5696535 107.0625401  69.1027403  61.4633942
 106.0357571  69.8640680  60.6527853 107.0081711  45.2305889  50.7114601
 107.7187252  45.8586884  50.8412313 106.2508869  45.6347799  51.1349869
  88.8541794  50.9799719  44.5171595  89.8067093  51.0627794  44.5625639
  88.7023163  50.0497580  44.3501902  98.7258053  93.2636929  68.2392502
  98.3510494  93.0590534  67.3825598  98.4091473  94.1456032  68.4347153
  95.0293541  65.0578642  73.7807274  94.2745018  64.9413729  73.2037926
  94.7703362  65.7623291  74.3747616 108.4244156  57.7238464  23.5448241
 109.1641426  58.1300354  23.0931044 108.2029533  58.3396196  24.2434001
  12.3925090  75.4322147  25.7830834  12.0565701  76.2630653  25.4468298
  13.2253075  75.3086901  25.3276515  98.7900066  48.2651663  81.8818855
  98.7031269  47.4779654  82.4194717  98.1071186  48.1776237  81.2168789
  79.0596628  59.2212009  62.5238323  79.6940279  58.5671663  62.2305012
  78.8925743  58.9988899  63.4397459   9.5018762  17.9291987  52.5395775
  10.2183545  18.5063231  52.2753429   8.9823437  17.8127348  51.7441177
 103.4107971  28.5652304  10.7150555 103.8748741  29.3567967  10.4424989
 102.8287315  28.3644986   9.9821579  19.7097945  63.4172344  78.4385824
  19.6990001  63.5065603  79.3915462  20.5201316  62.9432869  78.2516098
  92.5968170  27.4495125  81.8297195  93.4015369  27.9668522  81.8616676
  92.2735596  27.5643706  80.9361076 104.5247269  32.1451664  43.9126921
 104.1584778  32.9439378  43.5331345 104.3913555  31.4773655  43.2400179
  87.6462173  49.0435505  66.2144041  87.9261017  48.5476542  65.4449987
  88.4615707  49.3485498  66.6124010  91.4970207  81.0898972  55.0745726
  91.9222736  80.9577179  54.2272758  91.7959023  81.9531155  55.3604937
  78.0807304  79.5497513  43.4477329  78.0967045  80.1430798  44.1986895
  78.4972525  80.0449181  42.7423573  65.9599209  71.7341518  57.2460556
  65.3398085  72.3825407  56.9124651  66.3322592  72.1395683  58.0291510
 105.4396629  72.5514174  88.9213371 105.1215458  72.2512007  89.7727394
 106.3836670  72.6549006  89.0412712  32.1260858  23.3369136  74.7142601
  32.4829006  22.6922750  74.1032314  32.4371028  23.0506635  75.5730772
  81.8146038  70.7104683  88.6694431  80.9863377  70.3687429  89.0062332
  81.6691780  70.8062172  87.7282143 101.9233704   5.1489818  53.3280611
 101.5498447   4.4092339  53.8071060 102.7797413   5.2882963  53.7323523
  88.7412739  61.5227890  76.6570568  89.2263889  61.6907692  75.8491707
  87.8395557  61.3796091  76.3696098   5.4033571  16.7702734  89.6547890
   5.6353533  17.5157678  90.2085495   6.1371905  16.6866541  89.0459156
 104.9663544  40.6483173  80.7199287 104.4013309  41.2522459  80.2379990
 105.6238079  40.3737259  80.0807285 109.6787930  33.1471944  52.6699257
 109.0599632  32.6082635  53.1627131 110.1723099  33.6192131  53.3406496
  15.3136802  22.1856117  60.9376097  15.7049525  22.4051332  60.0920630
  15.3466952  21.2297463  60.9758615  91.4065933  25.5125928  63.5473347
  90.7150555  25.4039049  62.8944969  91.2905598  26.4052486  63.8728094
 107.8472328  74.5066118  72.4895620 107.7216434  74.1528893  73.3700943
 107.7871132  75.4553127  72.6017332  90.8703804  72.3298311  58.6825848
  90.3491974  73.1134415  58.5077810  91.7727852  72.5992870  58.5114431
 105.2635956  35.5036259  62.9104710 106.1591053  35.6768584  63.2007647
 105.0931549  34.6024036  63.1842947  80.5340099  61.4660406  54.7196007
  79.7430944  61.4826441  55.2584982  81.2518597  61.4032555  55.3496695
 108.1884480  32.5247908  42.5464773 108.6269474  32.0794940  41.8214560
 108.0351830  31.8358755  43.1931162  41.0106897   6.9681811  50.5315447
  40.2096939   7.4150920  50.2578497  40.8212757   6.0384321  50.4053640
  77.3600340  52.7833843  58.8099957  78.1504345  53.2000303  59.1533756
  76.6458035  53.3536673  59.0944052  97.8560352  30.4911065  50.2897310
  97.2896957  30.4387307  51.0596371  98.1878567  31.3889217  50.2971220
  81.7910671  50.6700325  57.0149851  81.4392757  51.0217047  57.8327894
  82.3687458  49.9578476  57.2894001 102.2249603  40.0375128  18.6678839
 101.6589737  39.9302268  17.9034328 102.0578766  40.9316254  18.9660048
  30.6311488  42.2637129  60.4958677  30.7838273  41.4158392  60.0786877
  31.4155555  42.7741909  60.2949953  97.6421452  57.0175314  48.1356955
  97.9445934  57.8185034  48.5637140  98.4451199  56.5426350  47.9213667
  79.3717194  48.3056879  62.1210575  78.5033178  47.9031277  62.1286631
  79.4235945  48.7789774  62.9514408   9.4686127  69.5267296  77.0574093
   9.5623660  68.6145210  77.3318434  10.0050855  70.0199127  77.6780510
   5.1168585  16.4072180  53.4053946   5.0425947  15.8406007  52.6375008
   4.3871304  16.1461592  53.9671564  84.6536160  93.0221462  52.4384689
  84.3115997  92.1281433  52.4386644  85.6047249  92.9147339  52.4469900
 103.4356499  55.1897717  40.5346441 103.5988331  55.0660849  39.5996022
 103.5777855  56.1249876  40.6809282  98.0702496  74.4286108  90.7992363
  98.7394333  73.7582064  90.6614876  97.2405338  73.9683056  90.6730556
   4.3339270  60.8513784  81.2683010   4.9731106  60.3034878  81.7238140
   4.7293231  61.7230415  81.2586117  76.8919373  54.6880531  38.7924552
  76.2498426  54.5463419  38.0968499  76.8286276  55.6224775  38.9901114
  96.1758709  38.6693645  61.3404846  96.2592697  39.3508220  60.6734800
  96.6654110  37.9267716  60.9867239  95.9416485  22.0968890  54.2813969
  95.8215237  22.9507399  53.8657713  96.8829632  21.9329548  54.2241430
  74.0529060  53.3585644  55.1681089  73.4302950  52.6666403  54.9448872
  74.0581226  53.3764648  56.1251307  96.1223125  18.0547643   2.1548706
  96.8355751  17.5292003   2.5171807  96.2756062  18.9352739   2.4975550
 110.0654602  64.1325331  48.3570528 109.4075489  64.7034311  48.7538719
 110.2308846  64.5192385  47.4972153 108.4122562  60.4448414  69.8975229
 108.1750011  60.8222055  69.0504456 109.2489624  60.8549643  70.1165247
 109.4974041  60.1060534  45.8166361 109.1212940  59.3335629  46.2385750
 108.8514996  60.7971811  45.9628534  10.4429364  56.8086576  69.2769289
  10.5959153  57.2607327  70.1066637  11.3181794  56.6684246  68.9156580
  15.3527009  37.0630836  59.8803377  15.4902160  37.5454545  60.6955910
  14.7819459  37.6290178  59.3605423  10.2579248  56.5602398  41.8952417
  10.4570305  57.1239805  41.1477184  10.5382538  57.0660162  42.6580286
 109.2047691  66.3553810  41.5822840 109.6984196  65.6166315  41.2261915
 109.6792126  67.1292067  41.2784338 104.2373753  83.5050392  55.5259752
 104.1633034  82.9664230  56.3137817 104.6715927  82.9383564  54.8883581
 106.1902905  37.1637034  83.0693722 106.6565990  36.8613434  83.8487148
 106.2279415  38.1186485  83.1231594  89.6208858  69.5165110  33.7228537
  90.3073692  69.1927290  33.1396437  89.3342972  68.7428236  34.2081499
 107.3563766  84.0272522  22.9091167 106.5047646  84.3830681  23.1628537
 107.1492672  83.3346558  22.2817039 106.1727810  68.4114504  31.6866827
 106.3366604  69.3315506  31.8935299 105.8744144  68.4198761  30.7772112
   9.3271595  41.4304066  39.4212770   8.3723927  41.4323473  39.3530989
   9.5910531  40.5823851  39.0642715  75.5916357  71.5674782  71.5755177
  76.2035847  72.2155237  71.2265348  74.8315477  71.6193914  70.9960318
 104.7161865  59.7567797  73.6371851 105.3093624  60.0384235  72.9407310
 104.0358257  60.4297304  73.6590290  95.9210396  36.5479875  90.8943176
  96.4330196  36.4277077  90.0945473  96.4286327  36.1028528  91.5728664
 102.6788521  90.3351688  58.8299465 103.5373116  89.9659443  59.0372181
 102.5488091  91.0212517  59.4846249 104.4754410  60.6143236  59.7578573
 105.3083324  60.2123213  59.5110226 103.8944530  59.8738575  59.9321842
  90.9913826  21.0077500  72.0878839  90.2881050  20.5878663  72.5831890
  91.3260746  20.3176355  71.5152073  27.9873919  65.5395269  67.8014183
  28.6638141  64.9085999  67.5552082  27.2356462  65.3101492  67.2550726
 105.0525856  78.3381414  48.4999990 105.3613472  77.4953651  48.8326073
 105.7699966  78.6568451  47.9522896 102.4627686  59.1674948  69.4629622
 102.3297024  58.5848808  70.2106857 102.9776287  59.8940325  69.8140860
  83.6372662  52.0887709  66.8148851  83.8109112  51.8983221  67.7367401
  84.4934940  52.3149967  66.4516497   0.9878531  43.7646914  39.9351668
   0.3124926  44.4128942  39.7352839   1.1069235  43.2827044  39.1167903
  13.8567758  88.2948017  38.2538438  12.9014766  88.2899094  38.1937361
  14.1505027  88.5492992  37.3790956  92.8328991  52.4675131  52.2359467
  93.6784363  52.1471882  52.5501013  92.9824257  52.6727962  51.3130569
  92.2076702  62.1264029  18.6316121  92.9189777  61.5174866  18.8303292
  91.8046761  61.7733002  17.8384244  15.7950199  38.8209391  19.0300310
  15.1594663  38.1086349  19.1002142  16.2264979  38.8419747  19.8842061
 105.4757500  39.0434575  68.6764240 105.6715488  38.2280350  69.1379261
 105.7635403  38.8848925  67.7773857  98.6118603  25.1256895  18.4378135
  98.1262970  25.5707431  19.1323590  98.8158989  24.2644215  18.8022566
  86.8228436  54.2891550  52.1525669  86.5619850  54.2591572  51.2320852
  87.7786922  54.3343830  52.1292782   7.9092509  80.8848763  66.0542345
   7.2814333  81.0940170  65.3626156   8.4346074  81.6793823  66.1490774
 105.7426834  38.5289454  60.8161640 106.0575485  38.2470989  59.9572992
 105.7315350  39.4847322  60.7653618 101.7171383  24.9423933  65.6503248
 101.3644886  25.8007622  65.8849907 100.9616852  24.4546056  65.3223228
  79.4257259  63.7655544  71.7904711  79.8316050  63.8732338  70.9302950
  78.5959291  64.2381334  71.7246103  90.2702427  80.2751827  39.0725994
  90.0125980  79.8573685  39.8943567  90.1767731  79.5866632  38.4142375
  11.2792325  58.5843468  48.8234663  11.1314356  57.9443789  49.5197630
  12.2204876  58.5416889  48.6547899  69.9617147  48.2481766  11.5623891
  70.8644724  48.5651207  11.5339923  69.4923687  48.9074659  12.0735490
  25.1152992  71.6138554  75.0986862  24.5039010  71.4172840  75.8084631
  25.9163642  71.8919611  75.5427361  92.1584129  56.3882971  56.7132950
  91.5855503  55.9146500  56.1101961  91.5633392  56.9235516  57.2382927
  64.7583294 103.7647343   3.2545403  64.2864513 102.9709148   3.5063618
  65.1563644 103.5493565   2.4110854   0.7969607  69.7706032  44.2745829
   0.8617726  69.9457693  43.3357811   0.7472420  70.6376219  44.6771288
  85.7546139  60.3088093  83.7305927  85.4098225  59.6575499  83.1196785
  86.2373066  60.9235859  83.1780529  76.0387039  39.0021229  91.6943550
  75.7240772  38.4274697  90.9964848  75.6760597  39.8613524  91.4788342
 105.4130077  47.7314568  45.8166599 105.9305763  47.2032738  46.4244270
 106.0532093  48.2992077  45.3876686 100.8245754  40.9516811  54.9036694
 100.2167702  41.5060520  54.4143105 101.6924953  41.2643766  54.6483994
  82.7674675  46.1317301  67.8997993  83.2274246  45.3653145  67.5573301
  81.8433666  45.8826208  67.8856039  93.1595230  12.8819489  62.4918652
  92.9299068  12.2382486  61.8216705  92.3301125  13.0823588  62.9256248
  64.4530630  85.9119511  63.2999516  63.6641407  85.3734493  63.3619261
  64.9939728  85.4699326  62.6455307   8.0488765  20.6121778  84.2852116
   7.2680408  20.6131840  84.8388577   7.7736229  20.1671076  83.4837246
  93.9191437  65.2756834  66.7894125  94.1676807  65.1304007  65.8765316
  94.3704796  64.5841646  67.2734880  64.8601723  16.5010965   2.6675335
  64.2043447  17.1945047   2.7403894  64.8214102  16.0454535   3.5084370
  94.6890545  70.0958920  75.3001404  94.3429947  70.9195614  74.9565649
  95.3455257  69.8255539  74.6581221  58.7572384   8.8920897   1.6935307
  57.9732895   8.7071848   1.1763561  59.1011477   8.0290669   1.9240725
 111.9593068  47.3083305  41.2406969 111.6950309  48.1907415  41.5009785
 112.8844222  47.2548342  41.4805555  79.1900826  84.8976517  77.6831722
  78.3469200  84.8860645  77.2302151  79.7171926  85.5278492  77.1920013
 103.0168056  81.8671989  25.4061484 103.9704323  81.8540096  25.3245544
 102.8519821  82.3603821  26.2097859  55.3719282  23.9223194   9.1692102
  54.7287226  24.5833254   9.4253212  55.6202316  24.1629314   8.2766384
  39.7409320  84.9142838   6.6473669  39.4617462  84.8920631   5.7320559
  40.0240850  85.8175182   6.7895490  94.5746422  62.6365328  54.2047977
  94.6200657  62.7286625  55.1564741  94.7114849  63.5233402  53.8715172
  90.4149628  72.5841284  61.9794130  90.2550888  73.4064150  61.5162516
  91.2280941  72.2500753  61.6006422  98.3966637  54.1070747  55.2083063
  97.7917767  54.1775513  54.4698143  98.8981628  54.9220753  55.1857615
  85.8766556  26.4193845  78.1959152  86.3933468  26.8565273  77.5190306
  85.6674576  25.5633855  77.8221083  60.3787613  91.8386936  37.7713561
  61.2013578  91.9639015  37.2981811  60.6341124  91.8152046  38.6935711
  80.8915329  38.9828539  83.1955338  80.1528072  39.4582105  83.5757256
  80.5655479  38.0911088  83.0740738  87.3510265  47.7116299  71.6642666
  87.8962898  48.1576729  72.3123074  87.0031357  48.4165001  71.1180401
  99.7297859  50.3657293  69.1398001 100.5475807  50.6185961  69.5681715
  99.9965572  50.0719738  68.2687235 111.6247272  76.4220667  51.1037397
 110.8360958  76.8274307  50.7432270 111.3010406  75.6768799  51.6098547
  19.8912477  81.9315815  73.4200287  20.5273533  82.1543026  72.7403212
  20.4174137  81.8125439  74.2107296 105.7597160  91.0227585  57.1245766
 106.2691689  91.4462185  57.8154993 105.3007030  90.3095722  57.5683165
 104.2784214  51.6915512  68.4168959 104.7108650  51.8336391  69.2589426
 104.9953651  51.5290117  67.8038645 107.4820328  71.2605095  50.3481865
 107.2480011  70.5461550  50.9407759 107.2855568  72.0561123  50.8428001
  71.8209553  88.4438801  66.8205738  71.1659622  89.0865993  66.5483141
  71.9786596  87.9162312  66.0376596  87.4536133  27.3641801  75.8867645
  87.7405167  28.2432604  75.6395006  87.5143433  26.8560362  75.0778580
 106.8866253  60.4506159  22.9241490 105.9370613  60.4834604  22.8080106
 107.0796490  61.1713314  23.5237694  78.4138680  68.8306284  86.7622948
  77.6470232  69.3924332  86.6502476  79.0159178  69.1064882  86.0711670
   9.3248695  58.0999279  63.4625959   9.5073557  59.0363598  63.3849287
   8.4021032  58.0557108  63.7131548   2.6750070  85.5659866  60.6434298
   3.1087565  84.7543812  60.9068394   1.8573509  85.2794266  60.2365446
  87.6719856  75.5666113  76.3970852  88.1540775  75.6636572  75.5758667
  88.2987881  75.1613188  76.9963217  89.9401951  92.6502991  73.0807114
  90.8577919  92.8653812  73.2480001  89.7834969  92.9495239  72.1850872
  97.9017544  45.4697227  65.6267929  98.1029034  44.6209860  65.2325678
  98.5398102  46.0701275  65.2412701 102.7628613  42.2428465  42.6788664
 102.0045567  41.6592407  42.7037191 103.4354210  41.7832041  43.1814814
  99.6323395  87.3758698  70.3876257 100.0932217  86.5369415  70.3841066
  99.3494511  87.4975395  69.4813156 102.7572155  35.8390689  67.7332735
 103.0849266  36.2580347  66.9374704 102.7336502  34.9061179  67.5204849
  19.8208547  57.0808792  52.8188419  20.0407887  57.9979897  52.6552248
  19.3382263  56.8074656  52.0387506 102.0198822  52.9663467  82.2099686
 102.1533966  52.0582294  82.4815083 102.4900532  53.0395794  81.3794136
   2.7135727  37.8987265  53.9321232   3.3002687  37.3012710  53.4683704
   2.8056836  37.6574683  54.8538256  35.8007669  86.5647125  38.6271381
  36.3327765  85.7873344  38.4571695  34.9630237  86.3790512  38.2029366
 110.9800529  80.9328175  45.7903576 111.6029644  81.6591835  45.8150482
 110.3014851  81.2198925  45.1793194   5.2842093  62.9448605  21.6699195
   4.8315492  63.2923889  22.4383926   5.3476977  63.6897373  21.0721254
  95.1997089  46.1182976  37.4131751  95.5222988  47.0184278  37.4571729
  94.5747566  46.1230087  36.6881633 111.2135124  85.9257793  39.5459652
 111.6963100  86.3111973  40.2771235 110.2939510  86.0965729  39.7495699
  93.9058495  70.2930260  81.7513084  94.3425274  69.4656706  81.5487576
  94.0618706  70.8408165  80.9820175 106.2588310  74.1334200  67.0913696
 106.8041897  74.6846390  67.6525879 106.7569828  73.3216333  66.9960976
  96.8689156  57.8939247  67.8833914  97.8216076  57.9632425  67.9450607
  96.7195511  57.2762060  67.1676111  23.5131454  64.1843700  42.0980453
  23.8841987  65.0646877  42.0381212  22.7312255  64.2903996  42.6398849
  82.0925808  78.3474970  69.5818520  81.6231346  78.7147903  68.8328886
  83.0004120  78.2802391  69.2859459  84.0099525  54.6647644  41.4889526
  83.5081959  54.8708153  42.2776318  84.2860317  55.5168200  41.1512947
   4.5729136  79.4760656  52.4889517   5.3774065  79.3007898  52.0007896
   4.2522797  78.6101246  52.7410984  33.1224346  90.0276852   4.3122393
  32.8583264  90.0489712   3.3924428  33.9728236  89.5883179   4.3071452
  95.2665710  91.8018246  49.6212530  95.9127522  91.9939327  48.9417124
  95.6864452  91.1400795  50.1708221 105.6250858  42.7124786  60.5287886
 105.5871582  42.5739098  59.5824337 106.4592457  43.1595182  60.6721592
  83.9898968  41.0974455  62.8727484  83.4312820  40.4006577  62.5282574
  83.4131718  41.6077280  63.4412956 111.6109562  56.4347124  33.9159369
 111.4615917  56.9677877  33.1350684 110.7758236  56.4551544  34.3832326
  81.5069485  58.0827808  46.3365984  82.1040154  58.4309101  45.6743622
  81.6868114  58.6040640  47.1189928   1.8687636  40.5539131  54.2015886
   2.3335940  39.7446346  53.9889050   1.5877846  40.4372978  55.1091623
  77.7032518  64.7862577  42.6224089  76.8145800  64.4546747  42.7510262
  78.0667400  64.8461723  43.5058784  15.4520655  56.5419531  55.9207296
  15.4430115  56.5929508  56.8765259  14.8944616  55.7914591  55.7156277
 104.2504501  64.3254519  40.7224417 103.5202312  63.8186264  40.3672791
 103.9335632  64.6413946  41.5686083   8.1535560  89.3623543  73.1056213
   7.5428063  89.7797298  72.4981546   7.6634562  89.2876244  73.9244318
  90.7358456  69.9479675  53.7664509  90.4584789  70.8154535  53.4718847
  90.2982044  69.3410492  53.1694984   3.9324763  71.6551685  44.6445131
   3.8068318  70.9061098  44.0619755   3.1331185  71.6865492  45.1701307
 108.2969856  86.0963440  45.1272964 108.1506824  86.9841385  44.8007202
 108.7454224  86.2197495  45.9639025  79.8793411  62.2123241  49.8362207
  79.3211174  62.9443836  49.5740891  80.7610226  62.5834703  49.8697424
   3.7432888  64.7797871  31.3501740   4.0400469  64.1921186  32.0450211
   3.5945085  64.2060661  30.5985475  97.4653530  71.6775465  83.0349636
  98.0906963  72.0438910  82.4096966  97.9584789  71.0003233  83.4980297
  67.8521299  63.6198711  13.3908427  68.6515713  64.0605307  13.6788332
  68.0475378  63.3267546  12.5008249  88.7673855  34.8870611  74.6649218
  89.1054726  34.1763067  74.1201687  87.8287029  34.9060059  74.4784927
  99.4422436  29.5964193  39.6164823  99.3813992  28.7053609  39.2721820
  98.5415077  29.8275661  39.8433399 107.4108791  39.4389820  49.2611647
 107.4201965  40.0860739  48.5558844 106.7634296  38.7910676  48.9832163
  73.2209539  65.1636171  63.0612755  73.7957191  64.5185089  63.4732342
  73.1922626  65.8906269  63.6832619 110.4044724  23.3725977  48.2479525
 110.0544071  22.7221107  48.8566828 110.2584267  24.2119551  48.6842775
  98.1508827  76.9339466  66.2641048  97.2384644  76.7620230  66.0313606
  98.6407375  76.2198591  65.8562469  96.3871479  36.8988729  49.8440266
  96.1992741  35.9908509  49.6064663  95.5687809  37.3652363  49.6736813
 110.4840088  54.3365765  47.5393867 110.8278275  53.7963772  48.2508659
 110.8669376  53.9607096  46.7467213  93.7892437  62.0413160  81.4377117
  94.0561676  62.9600286  81.4684486  94.6124363  61.5532732  81.4175606
  97.7290726  83.2899284  68.9920807  97.3661518  82.5271130  68.5419321
  98.5883904  83.4186077  68.5905218  82.4456882  61.0881901  15.7307184
  83.0528259  61.8110943  15.8889139  82.0116138  60.9513378  16.5727901
  77.6773453  70.8644342  48.6129379  78.6243343  71.0015011  48.5872841
  77.4355698  70.6919289  47.7029848  33.1438684   9.2911917   2.4466620
  32.5602031   9.0486300   1.7278233  32.6528907   9.9457496   2.9433766
 109.3297386  72.2588778  46.4560080 109.5158577  72.1701431  47.3907375
 109.8331738  73.0259657  46.1833191  38.8797545  55.7228470  56.9078684
  38.9886308  54.8445177  57.2724438  39.2714453  55.6705475  56.0360432
  32.8241086  75.2455711  55.3690863  32.7987480  74.6508408  54.6194935
  31.9047689  75.4386473  55.5528498  87.9935074  71.5580893  24.7725844
  87.4906254  70.9462261  25.3101325  87.6096821  71.4808607  23.8991141
  27.5675964  81.2824440  37.0278859  26.6314530  81.1313057  37.1583700
  27.6284409  82.2033882  36.7741299 108.0624485  38.5268641  42.9489231
 108.7003613  38.3314681  43.6353016 108.5934067  38.7154698  42.1751356
   0.8615553  69.8643160  70.8565807  -0.0576506  70.1268721  70.8080292
   1.1549202  69.8497343  69.9455643  22.8656363  93.8981915  57.6494884
  23.6045647  94.0931225  58.2258701  23.2641482  93.7441826  56.7929220
   3.2971007  17.0814395  29.8005128   2.4923348  16.9067752  30.2884436
   3.8256320  17.6154757  30.3935504  90.3977871  21.4090037  87.1695900
  90.5803394  20.4694748  87.1558666  90.2926159  21.6460395  86.2481880
   1.1630795  57.4571896  64.7492599   0.4497618  58.0784035  64.8958826
   1.2415283  56.9828606  65.5769634   2.1299879  37.4966812  15.1447415
   1.1769634  37.4284434  15.2023602   2.3032483  38.4380698  15.1464677
  86.4193058  59.5262527  41.8814373  86.2296677  59.2475653  42.7773190
  87.3597527  59.7045374  41.8800592 107.6730919  30.8719540  47.0534849
 107.1331501  30.0868225  47.1444082 107.0429707  31.5871334  46.9657469
  14.5158517  25.6996894  82.2192192  13.8872838  25.3964686  82.8743458
  14.7258008  24.9176574  81.7087555  88.4059334  63.0396414  53.5589838
  88.7244320  63.3348846  54.4119930  87.5174809  62.7272320  53.7300825
  15.7814085  83.7332535  56.5997028  14.8736632  83.4423351  56.5125465
  16.1394393  83.1931019  57.3041725   1.3775794  76.7774773  89.7404671
   1.6064107  77.7055216  89.7915077   1.8822411  76.3673782  90.4428673
 106.7566776  70.6064749  71.5449762 105.8065414  70.6895113  71.4638567
 107.0958138  70.8998871  70.6993246  99.1504192  81.8143463  57.3149633
  99.9164677  81.2405777  57.3290730  99.4481945  82.6217842  57.7340126
  24.7490406  83.6244678  43.3058500  24.4121885  82.7558422  43.0861902
  24.2236018  84.2256641  42.7779245   2.8241158  95.8350945  60.9933281
   2.2343816  95.1222038  60.7478952   3.6857045  95.5480957  60.6907845
  13.7457800  79.3745613  39.5978713  13.6609888  80.1137066  38.9956284
  12.9031003  79.3363237  40.0502682 111.0980415  69.9169636  77.2110367
 111.8508720  70.4258108  76.9101286 111.3507462  69.6067572  78.0806017
  45.5366611  67.1070337  32.1119094  45.6456089  67.9056406  32.6282334
  46.3778782  66.9907475  31.6702437  95.5350780  45.0726891  82.8460979
  95.1485729  45.0967026  83.7214661  95.7232571  45.9887838  82.6421642
  82.1696091  79.6658134  85.1104832  82.1037197  78.7601471  84.8077393
  81.5811157  79.7098446  85.8641243  83.9010334  47.7177858  56.5061712
  83.8123798  47.0050430  57.1389151  84.3017197  48.4309196  57.0032835
  14.2657995  91.0426807  64.3822527  14.4370341  91.8208122  64.9127388
  13.4422207  90.6956100  64.7250271  33.6116838  55.1076746  34.1442704
  33.6942029  55.8695269  33.5706806  33.4270740  54.3798161  33.5506558
   1.1399583  77.9746103  83.7940788   1.0177448  77.2493124  83.1815147
   1.4265539  78.7052298  83.2460880  49.2196989  60.3764486   1.3961011
  49.7595072  60.2803993   0.6114923  49.2456818  59.5145607   1.8116830
  88.0697823  37.4691319  59.3002987  87.6017475  37.2967386  58.4833193
  87.4728298  37.1698093  59.9860716  85.3756714  85.4292297  61.8894529
  85.6616879  85.3777409  62.8014708  85.0291634  86.3166904  61.7968416
  95.7699394  91.7170048  76.2706852  96.4034081  92.3950672  76.0357666
  95.7844925  91.1091614  75.5313921  77.4851608  74.4538498  73.3467913
  77.2733593  75.3827667  73.4389210  76.6445971  74.0059471  73.4419823
   0.7199480  59.7074699  57.5152063   1.2167178  60.1024771  58.2317448
  -0.1826146  59.6853161  57.8332043   7.7236646  68.1669664  49.1852093
   6.8237978  67.8502560  49.1066933   7.6532662  68.9586163  49.7186613
  79.2544413  65.1473618  62.2569084  80.1372814  64.8517990  62.0344830
  78.6902046  64.4080162  62.0305538  96.4535618  39.6902275  53.7167978
  96.7867756  38.9112663  53.2713509  96.0176373  40.1919651  53.0279875
  13.3232379  91.1813068  35.6547499  13.6787736  91.3861275  36.5195489
  14.0940893  91.0161304  35.1118541 102.5831890  76.4081955  39.3665147
 101.6628456  76.1451864  39.3605685 102.6768494  76.9341564  40.1607609
  96.0090160  71.1198807  58.8269186  95.6910992  71.6282415  58.0807781
  96.9605541  71.1118031  58.7232399  82.2655106  85.6130791  24.3651366
  82.3376656  86.1796665  25.1332521  83.0957603  85.7290649  23.9031172
 106.4970112  64.1582203  42.0485544 107.0803165  64.7309303  41.5505695
 105.8181190  63.9053726  41.4229298  24.2125344  84.5153046  82.2931671
  24.9062490  84.6388435  82.9410267  23.6495447  85.2825928  82.3958111
   2.4774794  69.9557924  50.3509998   1.7881840  69.3276119  50.5666256
   2.9850274  69.5272541  49.6618080  71.5051699  78.8045883  58.4168482
  71.6349316  77.8795147  58.2079601  71.4916897  78.8345098  59.3734884
  16.1100006   2.9887041  17.5070405  15.2161729   2.6922613  17.6785767
  16.0672462   3.3882862  16.6382849  12.0893455  71.2972355  26.0401893
  11.2827063  71.4419889  25.5456090  12.5933874  72.1016121  25.9170961
 102.9949379 102.9366207  53.0420637 102.2104359 102.4862385  53.3549976
 103.6892700 102.6476669  53.6342192  87.3438358  82.3809624  47.9486704
  87.3301888  82.5624847  48.8884020  87.1758461  81.4408493  47.8838634
  80.2554798  85.6585312  64.6446371  80.7229900  84.9599457  64.1867733
  79.7033787  86.0578537  63.9723635  93.1498718  52.7000284  59.5143604
  93.3663082  53.6158276  59.3391466  92.3546791  52.5403643  59.0060186
  10.3260124  67.5822687  48.5617208  10.7689691  68.3872461  48.8301039
   9.4106048  67.7200031  48.8052130  77.4453974  67.5675535  61.8032312
  77.8760195  67.1453619  62.5465679  76.7256784  66.9783974  61.5771246
  95.7821846  69.9467564  61.4270782  95.8271122  70.3256655  60.5492163
  96.6341877  70.1431751  61.8166256  11.6181314  90.4805946  48.1277800
  10.7964456  90.2262497  47.7078152  11.9469857  89.6717930  48.5201168
 112.2555447  85.9229183  44.9975300 112.4772263  85.4476357  44.1967821
 112.0625114  86.8127346  44.7022486  21.2491512  81.3776112  81.0054302
  21.9113302  81.5828037  81.6654587  20.4418278  81.7601681  81.3490963
   3.5057935  45.0384760  38.0855227   4.2445698  45.3311825  37.5518870
   3.8659862  44.9559116  38.9685154 112.4024552  66.7489338  78.2964945
 111.7508621  66.1696196  78.6915302 112.0796643  66.9022131  77.4084949
  84.6144485  75.5689240  68.8508129  85.5051327  75.8160496  69.0994835
  84.6636581  75.4128599  67.9077053  30.7490230  50.5236578  87.2589016
  30.4989934  49.6711397  87.6151848  31.3402987  50.3167105  86.5351677
  33.8335490  95.7375908  59.9222469  33.2391644  95.4971218  60.6329584
  34.6455956  95.9872246  60.3632641  89.7779942  51.1005926  48.6384821
  90.6937122  51.2254953  48.8876724  89.2922401  51.1906862  49.4583368
 100.2691841  62.2102833  84.0534782 101.0814762  62.6800299  83.8644123
 100.5086422  61.5825653  84.7352886   6.4417332  65.8017349  70.7084990
   6.6452909  66.7247438  70.8596849   6.8947303  65.3380871  71.4128113
  13.0912232  75.0365686  64.0928793  13.7343919  74.7283030  63.4544897
  13.5138810  75.7832050  64.5172882  13.2269883  83.8559914  82.0110416
  13.0490279  83.1933975  82.6785183  13.1215203  84.6905136  82.4678612
   2.9769450  68.3337688  11.6281044   3.6719319  67.7358913  11.9033563
   3.2397491  68.6199808  10.7533193  92.7418613  39.4490528  69.9116802
  92.7650928  38.6046457  70.3618670  92.1751976  39.9953580  70.4563570
  52.3067236  30.2745199   2.7876499  51.9169188  30.9425926   2.2237702
  52.9393721  30.7528257   3.3235726   0.1603395  40.3081942  32.9149795
   0.5972940  39.4818497  32.7089405  -0.7210463  40.2093458  32.5549364
 105.8691978  77.5240612  64.4632864 105.6423759  77.6720190  63.5451984
 106.3586712  76.7014837  64.4595051  33.9387918  99.8260975  65.5336380
  34.5343876  99.0767956  65.5274868  34.3520093 100.4652786  64.9531794
   2.8925434  61.4923906  78.1742859   2.1399309  61.5287352  78.7646103
   2.8789943  60.6018972  77.8234720  97.6855564  83.9057922  42.1721840
  97.3310280  84.5882893  41.6023254  98.1471634  84.3844986  42.8606510
   6.7195815  58.2889652  66.6212654   6.6129535  58.8160849  65.8294296
   6.1150056  58.6795950  67.2522449  12.6770556  41.2749815  51.1981058
  12.8466833  40.3380346  51.1001682  11.9544721  41.3234282  51.8240070
  98.7102890  68.8117218  74.2692900  99.4616795  69.1008520  74.7870159
  99.0479565  68.7399244  73.3765078   5.1224232  69.0498209  61.1293364
   4.5249510  68.5017920  60.6204939   5.5410534  69.6147823  60.4798746
  14.8769069  59.5089054  59.3359470  15.3855753  58.7239742  59.5393562
  14.0634799  59.4016075  59.8289537  42.9702044  78.3712149  41.3952732
  43.1625843  77.4581718  41.6087627  43.4838533  78.5461569  40.6067371
  84.0542412  78.7412643  81.2616730  83.1198692  78.8197708  81.4540386
  84.2627907  79.5299578  80.7609749  70.8869028  80.2868271  85.5238056
  70.8395958  80.9626961  84.8476410  71.0168266  80.7719517  86.3386726
  94.1236019  52.3049736  67.5730991  94.3600655  51.3856173  67.6959848
  94.9257565  52.7874041  67.7732038  13.5109675  88.2449436  49.3235874
  13.9049721  87.6108360  49.9226665  14.0418923  88.1859779  48.5293102
   8.4668672  94.7951984  36.0452414   9.2373621  95.3545952  36.1434436
   7.9466403  95.2214718  35.3641486  86.8841648   9.1412967  72.4473333
  86.1083412   9.6528304  72.6768017  86.7523098   8.2984185  72.8813887
  33.8256717  92.3099041  60.9790754  33.3097577  93.1021595  61.1287308
  34.5249724  92.3527050  61.6312885  73.9478731 102.9216957  50.0911903
  73.8227320 102.2743607  50.7851124  74.5987654 103.5283470  50.4441118
  42.3423862 100.7193661  42.3699045  43.0603790 100.5123138  41.7717028
  42.3559618 100.0117493  43.0143642   3.9192173   7.8588623  76.9032145
   3.3682296   8.6413640  76.9215488   3.6770028   7.3767984  77.6938963
  77.7207375  16.4268017  79.0605021  77.0894003  16.0444641  79.6699810
  77.8191233  17.3324430  79.3543863   2.5788394   6.3736922  11.4006841
   1.8429722   5.9102470  11.0007465   3.0162084   6.8066096  10.6675255
  67.1552372  15.5879378   4.9980754  66.3953686  15.0741744   4.7244385
  67.5659800  15.0614202   5.6838608   3.8247287  11.7937684  46.4623737
   2.9378185  11.5495515  46.7269087   4.2979479  10.9630537  46.4153767
  81.1385632   5.4643774  14.6362019  80.4431629   5.8048296  14.0734088
  81.3615704   4.6154046  14.2544377  43.2937288   8.7458104  59.5496845
  43.8417530   7.9680789  59.6547365  43.8183975   9.4593406  59.9127626
  84.2020416   4.1201442  37.8515077  83.4246159   4.6560052  37.6943636
  84.4569588   4.3258938  38.7509060  72.7561235  11.0717797  78.7314320
  72.8742123  11.8385553  79.2920923  72.1036863  10.5399859  79.1872311
  35.2653527  78.4760618  49.9990559  35.7869315  79.2746973  50.0788593
  35.3855681  78.0268860  50.8357286  64.8070383  16.1918104  48.3207512
  64.5042467  16.4889538  49.1788054  65.0770044  15.2845550  48.4630108
  54.2025900  28.7309718  38.6591172  54.2147923  29.2670012  39.4520569
  54.3509531  29.3532228  37.9470634  69.5114422  37.6964760  30.5649281
  68.6757040  37.4660540  30.1591134  69.7606421  38.5214138  30.1482630
  77.4009991  16.2093306  62.7825069  77.9384756  16.9287074  62.4510717
  76.9374895  16.5823972  63.5323143  82.8121758  47.4141121  15.6700838
  83.6911869  47.0898581  15.4740465  82.5070572  46.8597937  16.3883233
  80.3248501  16.1335301  31.6830587  80.0724983  16.3680220  30.7899952
  80.3893661  15.1785862  31.6708016  81.5520954  22.7507806  31.8425894
  81.2725067  23.3840299  31.1814880  82.2053337  23.2194710  32.3620510
  42.5328159  92.1348953   5.8307570  41.6013050  92.2377777   5.6359917
  42.9632759  92.8093815   5.3053963  99.8724461  26.9701743  79.8451853
  99.8590088  27.8349471  80.2553272  99.1322613  26.9813728  79.2383528
  78.2710934 105.4779339  45.0471449  77.6331043 104.7964573  44.8355007
  78.8012075 105.5641365  44.2548227  91.6215420  25.9269762  45.3865147
  91.2342453  26.3323450  44.6106863  92.5196552  26.2574649  45.4063606
 102.8390217  42.2850513  35.1072049 102.5749683  43.1077337  34.6952605
 103.7952328  42.3235226  35.1276398   3.3069772  20.1674581  39.5084000
   3.6711392  19.5870054  38.8400483   3.6462721  21.0338736  39.2838240
  69.7435236  21.5792274  45.4323864  70.3482008  20.9803534  45.8704996
  70.2552128  21.9543862  44.7156858  62.5664091   5.0294876  56.0632706
  63.0800056   5.7436877  56.4405870  62.8279305   5.0067216  55.1427698
  76.5093994   3.3007288  55.5785894  75.5992937   3.4189311  55.3066254
  77.0171595   3.4262210  54.7769260  59.7610235  96.4783001  75.3456020
  59.5667982  95.8643627  76.0538292  60.6147289  96.1995506  75.0143719
   8.6841810  49.2178488  83.4068871   8.0333865  49.5836067  82.8077888
   8.4343630  48.2984924  83.4996510  52.1149588  93.7318230  82.5145721
  53.0630541  93.6932182  82.3886681  51.8811941  92.8631020  82.8415394
  89.5705795  16.7628121  38.5986876  90.0997734  16.2875903  39.2392731
  89.3170834  16.0987639  37.9575872  51.9661427  93.0236721  29.2331433
  51.3899851  92.3307228  28.9105177  52.3031092  92.6876640  30.0636768
  20.7045984  66.3182449  80.6126595  21.3575840  66.2232637  79.9192524
  20.5482435  65.4247761  80.9184361  86.7616367  16.5808094  52.7146769
  86.0559654  16.5194046  53.3584929  87.4878693  16.0973501  53.1084824
  29.3632174  71.2823677  23.7220645  30.0623989  70.6692982  23.9490461
  29.8209834  72.0790195  23.4536743  47.9023314   5.0991720  60.9862518
  48.1442070   4.6480250  60.1774311  47.0398188   5.4720265  60.8037996
  19.8475456 105.1363945  50.3412580  20.4099226 104.4158936  50.6255722
  19.1529417 104.7132778  49.8365545  93.2202816  59.8020267  48.5933638
  93.2066917  59.8151684  49.5503807  94.1489029  59.8506308  48.3663273
   4.3708867  27.0883441  69.2436457   4.9345464  26.3806009  68.9312077
   4.3565154  27.7187467  68.5234976 100.1438713   4.7741282  36.9288063
  99.3749332   5.2761990  36.6588402  99.9429607   3.8733205  36.6750145
  89.0960503  10.3834617  45.9518433  89.6888447  10.0733459  46.6364193
  88.8423443   9.5914906  45.4778719  91.8336296   2.2949940  18.1622672
  92.1965313   1.4135349  18.0753136  91.3848591   2.4522729  17.3315418
  48.2699013  95.7023335  43.4104156  48.3186722  95.0718403  42.6918459
  47.3382092  95.9087086  43.4851551  37.0468760 101.9160938  45.3761005
  37.3566222 102.7092457  44.9388409  36.3287115 101.6040039  44.8255825
  40.2002239  78.3193445  48.9409590  40.9647465  77.8655243  49.2956209
  40.1388550  79.1237450  49.4561338  79.4574928   2.1108916  19.9538291
  79.1159868   1.4180093  20.5190921  79.1313171   2.9214579  20.3447556
  88.9995956  27.4472570  71.1079693  88.2959652  28.0932617  71.1697578
  89.6217728  27.8292561  70.4889441  99.5609188  21.4530802  59.0265989
  99.9273586  21.7331791  58.1878471  98.6233807  21.3580322  58.8585997
  68.6325264 102.5563431  65.2055740  67.7631664 102.2840786  65.4993773
  69.2252207 101.8988037  65.5697107  77.4524069  20.0339746  56.0542107
  78.2261467  19.4965899  56.2238264  77.3089457  19.9563372  55.1110077
  57.2531748  27.5246119  86.9729805  57.1164989  26.7391419  87.5026894
  57.8226948  28.0778909  87.5075436  85.0791359  28.9794254  44.7889662
  84.9456501  29.9171853  44.9268818  84.8614120  28.8394856  43.8674212
  86.6221619  31.9352388  30.5624700  86.3259506  32.7299285  31.0062695
  86.0883427  31.8907785  29.7691941  18.3507597  61.6447163  89.3132401
  18.3755720  62.0969391  90.1565170  18.8007963  62.2367859  88.7106228
 100.4730797 100.0045872  44.1217136 100.0481319  99.5705223  44.8614740
 101.3011646 100.3275394  44.4769764  63.9672232   4.9415874  24.2874908
  63.7545395   4.9635458  23.3544779  63.5958672   5.7516617  24.6369290
  74.8638964  15.1734924  39.0757012  74.6155691  14.8858202  39.9542284
  75.4943419  15.8783686  39.2237544  88.3064747  39.6128798  10.4247272
  88.1749821  38.9738154  11.1251128  89.1118813  39.3307662   9.9911839
  88.5745430  15.5034149  36.2989855  87.9725456  16.1307025  35.8985496
  88.4668636  14.7048199  35.7823753  55.1670122   7.6074451  31.9429636
  56.1111593   7.4747109  32.0278454  54.9486685   7.2352022  31.0885668
 101.0322094  14.6458781  78.0955744 100.6070518  14.7126448  78.9505672
 101.4609051  13.7901282  78.1074333  80.9457397  19.2525804  53.8449621
  81.0019970  19.9665153  53.2098532  80.7589436  18.4763956  53.3168745
  40.8570910  85.3163338  25.6886673  40.9858751  84.9615669  26.5683198
  39.9487853  85.6182957  25.6828046  31.0010338  99.1929531  74.0674639
  31.4134979  98.7537670  74.8112488  30.7747889 100.0623035  74.3980312
 104.7116947  11.9924819  58.5342503 104.6862221  11.4698172  57.7327490
 105.5828285  11.8322062  58.8971233  86.0451603  24.1803479  53.8673639
  85.7720184  24.2594075  54.7813511  86.6435051  23.4332514  53.8599682
  65.8259392  17.2658443  32.9341793  65.6503105  17.8171098  33.6967349
  64.9688959  16.9182444  32.6874280 106.5470791  18.5218799  35.7654810
 106.2083054  19.4093895  35.6480408 107.0218086  18.5546708  36.5960193
  24.8976517   2.6296544  37.5783086  25.2789879   2.2303686  36.7963958
  23.9784718   2.7704552  37.3513317  83.1112671 103.3124638  36.3635564
  82.3328018 103.1927109  36.9075108  83.4240532 104.1901112  36.5829492
  98.6093807  44.4697142  59.7512102  98.5676289  43.6236715  59.3054533
  97.7468586  44.8590612  59.6073341   3.0525285  24.8804402  30.0047994
   2.1064103  24.9153495  29.8638272   3.1759670  25.2270293  30.8884692
  83.8180351   9.6852559  18.8547182  84.0533257   8.7576669  18.8758659
  84.3268394  10.0776529  19.5642102  48.4589100  45.6158543  31.4532256
  49.1386843  45.9621000  32.0313740  48.0973625  44.8683691  31.9294405
  11.9479609  25.4510951  50.3153276  11.1986411  25.9764457  50.0346899
  11.9684207  24.7163415  49.7021818  16.7070484  94.8828793  17.9104114
  15.9004366  95.3894043  17.8152907  16.4487946  93.9822197  17.7145731
  30.8430219 104.0447712  37.9470849  30.6478190 103.1944752  38.3409381
  30.5082631 103.9770603  37.0528889  91.4181805   6.6255856  39.3487024
  91.4421940   5.9840035  40.0586510  91.6074562   7.4615407  39.7748280
  97.2987747  33.2537556   9.3918145  98.1542301  32.8246093   9.4080108
  96.9625664  33.0845618   8.5117197  74.4726753  35.9966397  28.5430694
  74.5411205  36.0605502  29.4956779  75.3795910  36.0011792  28.2369375
  73.4263182  37.4064660  83.6666298  72.5609922  37.7771854  83.4933853
  73.8904572  38.0943727  84.1436958  76.3841820   4.9126840   6.1028510
  76.5419054   4.8693466   7.0459718  75.4788971   5.2137315   6.0249925
 105.6960487  47.1002913  42.5523567 105.6463718  47.6399708  43.3413506
 105.7653999  46.2034464  42.8796005  56.6161966  80.1826286  47.3481035
  56.7631578  80.2062607  48.2936573  56.0019398  79.4599295  47.2191715
  14.6616268  40.7149076  39.0852809  15.2824306  40.8409882  39.8028731
  14.2287958  41.5634537  38.9911604  66.7099476  18.3719575  36.7039204
  66.1134052  19.0719211  36.4385557  67.5820780  18.7116468  36.5033293
  67.8913832  31.9532704  28.9179921  67.1785927  31.4984965  29.3667054
  68.2933331  32.4963760  29.5960069  71.6009958  59.7891955   0.1797375
  71.2071188  60.6420891  -0.0037399  70.8580001  59.2210297   0.3831562
  86.9074821  36.0714340  61.3996410  87.2179508  35.3889084  60.8046579
  86.0833931  35.7299089  61.7467260  45.6950045  93.7957001  39.3240285
  46.5727806  93.4139538  39.3220520  45.8400631  94.7305489  39.1782284
  54.8591328   0.2977407  56.7477083  55.4995728   0.9700559  56.5151930
  55.2013874  -0.5051857  56.3547707  14.5909441  47.3576164  56.1077261
  15.3238523  47.4213219  56.7201138  14.4424844  46.4171839  56.0088634
  31.7684650  75.1766825  62.2072792  31.1886287  74.4706631  62.4928713
  32.4874663  75.1664734  62.8390789 100.0412560  18.7929606  53.2776546
  99.7449207  17.8840256  53.3251333 100.6491852  18.8853109  54.0112257
  97.7577209  52.4228239  64.8223448  98.0878067  52.2239256  63.9461517
  98.2574940  51.8486023  65.4026270   8.0174035  14.0580428  16.6776323
   7.3565245  14.7375441  16.8108547   7.9875898  13.5346341  17.4784994
  97.7831078  32.4540567  39.2258596  97.0554638  31.8894434  39.4865894
  97.4211216  33.0067968  38.5332751  71.2107277  16.6336417  38.4242702
  71.9316530  16.0699093  38.1437325  70.6331205  16.6807687  37.6624441
  99.2110538  11.6659462  66.2557983  99.3977261  11.1843109  65.4499340
 100.0650692  11.9851375  66.5473461  68.8380814 100.0941563  54.1783667
  68.2035160 100.7946301  54.0270424  68.4947252  99.6193218  54.9352455
  71.5402460   6.2810737  39.8770332  72.0534277   5.6103253  40.3275585
  70.7422876   6.3631517  40.3992987  86.9770432  29.6869469  62.4869633
  87.8962231  29.4405365  62.3838758  86.8643188  30.4396725  61.9065094
  59.4343901   7.1162558  49.7879171  59.1525221   7.1998531  48.8769865
  60.3864098   7.0307112  49.7371626  69.5138264  11.1327124  16.1984181
  69.8164701  12.0361054  16.2907195  68.5596371  11.1940360  16.2430859
   0.7496639  37.9835510  31.6222429   0.3328435  38.0091786  30.7609439
   0.8563613  37.0508385  31.8090367  86.3929462  28.7336326  38.8047886
  85.4899311  28.8891530  39.0815616  86.4820480  29.2274666  37.9896688
  69.9820328  30.0859594  48.4446335  70.0366688  30.0532246  49.3997145
  70.6838942  29.5083618  48.1446409  79.4399309   9.1412568  51.2598276
  79.8709774   9.9941736  51.2053967  80.1575851   8.5163832  51.3634348
  66.3188553   8.6928427  56.6169167  65.9228754   9.4569010  56.1978149
  67.1349287   9.0222412  56.9934225  99.3247700  30.1696348  27.5573397
  99.3892670  29.4220376  26.9630599 100.0145531  30.7664824  27.2671604
 105.4181004  30.7428098  66.9389296 105.0583458  29.9898410  66.4700508
 106.1882401  30.9961820  66.4300919  36.2166429  99.7553635   4.7647512
  35.8489561  99.3886185   5.5688226  37.1566105  99.8134804   4.9359608
  91.6022873  20.3430223  31.3480043  92.0595455  20.9272814  30.7432008
  92.2583580  20.1211095  32.0087242   6.9352680  15.6743300  71.6462088
   6.8412614  15.0230861  72.3413897   7.8361118  15.9866619  71.7308331
  62.9269743  23.9025021  49.8229933  63.8560629  24.1110444  49.9206257
  62.7845240  23.1618524  50.4123831  83.0815887 105.5318165  61.1096144
  83.6459446 104.9936676  61.6647100  83.0712128 106.3880920  61.5372944
  10.0733554  10.1154649  53.9784956   9.7785467   9.7139698  54.7958851
   9.9993014  11.0570717  54.1338158  89.3580532  17.7175534  70.5966091
  88.4906769  17.6379788  70.1996613  89.2607021  18.4125566  71.2475538
 104.1139793  37.3479939  51.3415003 103.1638241  37.3865223  51.2320948
 104.4162464  38.2293558  51.1222649  90.7988739  98.3239365  22.7134347
  90.5342007  99.2410374  22.6419377  90.7055283  97.9778194  21.8258977
 109.0484810  27.9066491   3.0796403 108.9194489  28.7126637   3.5795611
 108.1730747  27.6740313   2.7701408  40.1501513  75.7544374  90.3266335
  40.2317476  75.9886694  89.4021320  40.8824778  76.2003088  90.7522202
   5.0818682  26.8904495  79.8137522   4.8940837  27.4524999  79.0620422
   5.4812545  26.1078906  79.4338560  32.6636887  80.5826187  65.6410122
  32.3046923  79.9397135  65.0294352  32.9956722  81.2853527  65.0822735
  68.0884409 103.9221096  76.8446350  67.8111029 104.4838428  77.5683546
  68.9274788 103.5604763  77.1300745  98.5829639 101.5474701  17.8809357
  98.6419773 101.0101223  17.0909929  97.6811028 101.8681812  17.8856242
  77.2730255  19.9103832  53.3850956  78.0534935  19.6553922  52.8930759
  76.5537405  19.8115242  52.7613258  98.3544540  12.9284036  61.7440939
  98.1615639  12.6210845  60.8583307  98.0759811  12.2104716  62.3126507
 108.9136791   5.6968397  17.0162559 109.7375107   5.2505493  17.2121394
 109.0389729   6.5866172  17.3461509  51.1026907  41.6640186  26.7856193
  50.8318806  42.3535252  26.1794257  50.2872181  41.2269258  27.0309544
  55.0272274 102.1088982  26.0071731  55.1996708 102.6535511  25.2391529
  54.1019154 102.2565937  26.2026620  32.2823167  28.7044263  36.7146564
  32.6459670  28.2349396  37.4653697  33.0421662  28.9112043  36.1705017
  12.3459470  39.8038459   7.3629194  12.2837520  39.3240333   8.1888390
  12.1149409  40.7043028   7.5910556  87.3237991   5.2113074  71.0374880
  87.8214550   4.3957031  70.9795237  86.9533920   5.2036613  71.9200802
  58.1703091  91.1287594  36.3570690  58.9989567  91.2419128  36.8226600
  57.5312233  90.9473228  37.0461845  67.2305727  29.4241858  17.9030907
  67.5244427  30.3139186  17.7075219  67.7235413  28.8705802  17.2975039
 107.3752022  36.8322492  20.5534554 108.1102276  37.4234033  20.7162404
 106.8923187  37.2424126  19.8359442 102.9925346  46.2524366  31.7877913
 103.8814926  46.5626812  31.9602609 102.5956249  46.9446564  31.2590909
  93.8148117  45.4062605  10.0513792  93.8722420  44.4733620   9.8448908
  93.5485172  45.8176184   9.2291242 108.1888580  10.2282548  21.3761997
 107.6652431  11.0237122  21.4726567 108.4109974   9.9775320  22.2728753
  92.6450157  19.6545827  33.9827681  91.7309856  19.4211638  34.1449499
  92.8279591  20.3552890  34.6086860  69.8084450  20.9735394  18.7233591
  69.3533278  20.1322007  18.7587404  69.1692686  21.6056228  19.0522265
   0.0933248  20.2616668  45.8913469   0.1995928  19.4411731  46.3727331
   0.8446962  20.7929611  46.1547899   1.9649665  10.8959424  31.7663240
   1.5402940  11.7516947  31.8260860   1.2411978  10.2741849  31.6901112
  79.7574091  16.2170255  64.5878506  79.4460011  15.6338441  65.2800608
  79.1473150  16.9544387  64.6034527  62.5770283  21.8131137  42.2336102
  62.4912977  22.7397180  42.0093727  62.3580122  21.3497829  41.4251614
  82.1592426   5.4303253  48.2061720  83.0851650   5.2117693  48.1006336
  81.7733860   4.6512336  48.6066246  36.1543179  93.3681679  59.6035242
  35.9185600  93.3689117  58.6758089  35.4011846  92.9719257  60.0417185
  90.6674480  46.5515661  56.0404539  90.0832462  47.2121525  55.6682158
  90.1700115  46.1731005  56.7654085  83.5566139  20.9744716  31.0427499
  84.1214180  21.1323357  31.7992616  82.7218819  21.3793206  31.2784219
  94.5655823  19.9243724  69.6470547  94.3813324  20.7151008  69.1400671
  94.7076797  19.2449510  68.9879417  57.8975098 105.3179339  51.4493132
  57.8501408 105.2610965  52.4036503  58.7665646 105.6786729  51.2737036
  94.8371220  37.3357630  37.9253602  95.5042839  36.9296026  37.3720431
  94.4694996  36.6097641  38.4293556 105.2391720  16.9077504  19.6669471
 105.9101582  16.4761686  19.1380322 105.3250790  17.8364444  19.4515860
  97.7807617  15.0129485  66.2261868  98.6128235  15.0342858  65.7534790
  97.9778481  15.4071403  67.0758915  42.1344852  18.9507806  67.1584892
  41.4475060  19.0191269  67.8215313  41.8687677  18.2098937  66.6137791
 102.5834370  14.8018777  69.2054129 101.7557716  14.8714185  68.7296295
 103.1943321  14.4286299  68.5700226  89.5023155   2.5776008  38.4233809
  89.4767570   3.2588685  37.7514768  88.5824776   2.4026141  38.6221528
  92.4823284  14.8957312  26.3247681  91.5856838  14.8123705  26.6492939
  92.9885197  15.1734364  27.0882344  87.4245071  24.9491477  28.2293963
  87.7583790  25.7513690  27.8278971  87.2563267  24.3637800  27.4909568
  99.8120308  11.0862899  34.8575902  98.8891125  10.8484685  34.7687387
  99.8419762  12.0169461  34.6357465  64.9011660  96.8183136  28.3159804
  64.1396427  97.3409081  28.5673761  64.6430111  95.9150696  28.4996700
 100.7351112  15.7070553  51.1025476 101.0335350  16.5435040  50.7454300
  99.9304867  15.5145121  50.6211615  90.4499626  36.5318489  55.8437014
  90.8702660  36.3167977  55.0110388  91.1774063  36.6819263  56.4474678
   2.0915838   3.6493391  52.2396755   2.0910043   4.6038866  52.1684647
   1.1660837   3.4132978  52.3026514  78.8751459  17.0715690  37.5583005
  79.5947933  17.7026606  37.5659609  78.5906029  17.0438540  36.6447902
  86.9407654  13.2308006  53.4287024  87.4732113  12.6531863  52.8818083
  86.0396862  13.0513179  53.1602049  79.3930483  36.8878675  58.7876749
  80.1098156  36.5378594  59.3167973  79.8154640  37.1956396  57.9857588
  64.0819359  20.6786704  19.0100861  64.3457079  21.5987086  18.9963639
  63.1368732  20.6981850  18.8593972  48.0599213 101.5414619  36.1370850
  47.5097418 101.6215134  36.9162703  48.6401176 100.8045292  36.3282371
 110.7689381  45.7659864  34.7806811 111.0848427  44.8739576  34.9246430
 109.8844814  45.6535625  34.4323683   7.1754462  46.6973448   9.8891217
   6.9206476  45.7836246   9.7609413   6.3635516  47.1909189   9.7731930
  99.3636799  43.2502174  16.5387332  98.7099361  42.9412985  15.9114969
  98.9467239  43.9949465  16.9720387  74.3675804  23.4636378  47.8109217
  73.5074759  23.7239504  48.1406021  74.7727156  24.2826581  47.5257874
  64.9554348  20.8698583  30.8529472  64.0777874  20.5637503  31.0815620
  65.3364706  20.1503897  30.3495479  85.0626850  15.1102972  13.5287976
  84.2751312  15.5624068  13.8314509  85.3119755  15.5730009  12.7288055
  61.1614132  94.9704647  89.5601368  61.0168028  94.5735550  90.4190826
  60.5075026  95.6673241  89.5051479  82.8953362  21.2606859  45.6916285
  83.4297085  21.4051437  44.9107265  82.0104980  21.5111971  45.4260588
   1.8880928  52.6200390  42.0106840   1.3656245  51.8535042  41.7747068
   1.9760507  53.1107330  41.1935425  56.5747213  84.9413204   0.0830310
  55.9031391  85.4586315  -0.3614910  56.1215401  84.1431046   0.3545143
 109.0646267 100.4892159  52.6442957 109.6450710 101.2127972  52.4081993
 109.3939686 100.1840115  53.4896469  90.5186558  35.7351947  19.1246271
  91.3792992  35.4437375  19.4255817  90.5424213  35.6121159  18.1756711
  53.7933636  86.9569016  46.5134716  53.9641809  86.4503098  47.3074532
  53.1831074  87.6398277  46.7917490  62.0560646  20.4317069  24.8693037
  61.4322710  19.7175384  24.7386456  62.2882032  20.7119346  23.9839673
  88.9257812  32.1770144  57.0105362  88.8280201  33.1199002  56.8777132
  88.1223392  31.8000460  56.6519165  90.1976967  15.8524990  84.8701859
  90.2887821  14.9446130  84.5809078  90.6497765  15.8817041  85.7133961
  49.5743132  14.3327546  58.8830805  49.6439266  13.7997150  58.0910873
  49.9513245  13.7868774  59.5730877  90.7553768  26.2471080  55.8898306
  90.1440334  26.9831586  55.9167433  90.2080154  25.4756522  56.0363913
  85.8920765  21.5706992  32.5893903  86.5853500  21.2286162  33.1538224
  86.2386036  22.4000311  32.2602129 102.7194786  43.7152100  30.2292562
 102.8299141  44.6347380  30.4711366 103.1137753  43.6472702  29.3596911
 103.7390804  41.8121052  39.7880888 102.9586411  41.5633535  39.2928433
 103.4003162  42.1315765  40.6243944  89.3324471   6.2504971  34.8191023
  88.9454174   6.5335941  33.9906740  89.7179317   7.0454675  35.1874113
  92.7779675  24.3426847  55.8906460  91.8434334  24.4732261  56.0513973
  93.1622314  25.2135825  55.9911776  60.5908155   2.4243125  28.5299635
  59.7397280   2.0418914  28.7435937  61.0111094   2.5626031  29.3787646
  10.0864005  35.9004092  29.2980170   9.6021670  36.3183713  30.0100970
  10.8846688  36.4217114  29.2129183  50.9128189  85.4609013  39.2765689
  49.9970627  85.6397820  39.0629673  50.8767080  84.9855804  40.1066256
  89.8364830   9.5618963  10.8557618  90.4739571   8.8682508  11.0252154
  90.2988625  10.1787281  10.2883482  76.5271235   5.3588039  50.7494020
  75.6814194   5.6019348  50.3727007  77.1207428   5.3188968  49.9995661
   0.0115315   4.7221544  37.5843930   0.3781103   5.3318566  38.2247949
   0.3529379   3.8668185  37.8453016  86.8801880  21.5862823  54.0414715
  86.9820309  20.9239984  54.7250223  87.7531719  21.6710520  53.6581469
 102.8633308   1.9874267  41.9572210 103.7825298   2.1206455  41.7257881
 102.8732777   1.8411316  42.9031229  78.6372519  16.2744677  34.0673900
  78.8990164  15.3661966  34.2182326  78.9950371  16.4868319  33.2053447
  98.6346912  28.5406423  71.2003231  98.5828686  27.6266932  71.4800358
  98.7541199  29.0332270  72.0123100  48.0099726  19.9073792  42.2663260
  48.8119173  20.2164817  41.8449354  47.5870275  20.7030797  42.5891447
  66.5878963  26.3277340   7.9713112  66.4114428  27.1981263   8.3284032
  65.8294916  25.8043170   8.2303321  79.2848635  31.5003037  61.4015961
  78.3290577  31.5372944  61.4376259  79.4747639  30.7277727  60.8692741
 104.9378586  21.3876605  60.0845814 105.1293755  21.3282609  59.1486168
 104.0922260  20.9503818  60.1842451  87.3033905  25.6506968  63.1843233
  86.6017723  25.0091195  63.2954550  87.0591640  26.3749290  63.7605858
 110.4383850   5.5340505  14.3989265 111.3072586   5.1429623  14.4903231
 110.3139019   6.0324508  15.2065980  13.0674469  73.2972622   1.8872696
  12.4885511  72.5432253   1.9992757  12.7225482  73.9556837   2.4903898
  96.2843513  15.1737940  58.3470583  96.6531849  15.5343962  57.5407362
  96.2966824  14.2260814  58.2131958  29.1227388 105.7156467  40.1546288
  29.1448784 104.7627449  40.2425003  29.8164511 105.9143639  39.5257354
  98.1241035   1.2758666  50.9550333  98.8205624   0.9361403  50.3931141
  98.5834599   1.6439649  51.7098331  77.8903866  29.3273163  54.8171997
  77.4823809  30.1159978  54.4597816  78.1168604  28.8050508  54.0476656
  83.6551666  23.4301615  43.2413435  84.3177319  22.7399731  43.2117224
  84.1534805  24.2439413  43.1660175 100.9348011  38.4353614  53.7894630
 100.6746578  39.2143130  54.2811871 101.7962265  38.6533880  53.4335756
  98.1419563   9.4107503  18.7915027  98.3660030   8.5187441  19.0567553
  97.4871731   9.2983854  18.1023967  80.1819515   9.7603178  62.8657341
  80.4987812  10.0659215  63.7157106  79.7916412  10.5358326  62.4626637
  22.3391676  69.3243408  82.5970554  22.6824880  68.9667034  81.7782402
  22.9067969  70.0707865  82.7890205  24.2572665  24.5848870  69.6620464
  24.1329265  23.8388205  69.0753984  24.7069860  24.2185163  70.4234600
 104.8023129  22.2796822  31.1153102 104.5166302  21.4571691  31.5129185
 105.4781914  22.0208430  30.4888701  93.1142139  59.7865486  51.3171959
  92.5222301  59.1477585  51.7143536  93.7275791  60.0119019  52.0166492
  91.1299133  38.3285213  68.0089426  91.8611622  38.8192368  68.3840513
  91.2718010  38.3727145  67.0633507  87.1870613  43.8190508  69.0303183
  86.5701485  43.0925608  68.9416695  87.9446125  43.5550451  68.5081530
  41.1585903  93.7899971  87.8469563  40.5367994  94.4950104  87.6665211
  41.8033266  93.8530827  87.1422768  67.9483986 103.9897060  67.8355360
  68.5068417 104.7246075  67.5819635  68.3745813 103.6208439  68.6091948
  69.0924978  11.5246034  40.0584888  69.5263100  11.3527083  40.8942461
  68.4579945  10.8137405  39.9673128   1.2032843   1.8381032  44.6933985
   0.7153895   1.1013347  45.0613117   1.8405654   1.4333922  44.1049147
  41.2521982  90.9010887  62.5330830  40.9228277  91.3136768  63.3315277
  42.1810818  90.7494450  62.7074862 101.0405922   5.1186442  81.3403893
 100.0980568   4.9550334  81.3733673 101.1894703   5.7953084  82.0008373
  72.4146509  19.9455059  24.5562553  72.7207947  20.2848554  25.3972936
  71.4647532  20.0604367  24.5830607  87.4618053  18.1092381  37.2649598
  87.3778725  18.9040530  37.7917027  88.1026936  17.5764680  37.7357483
 104.5490360  22.2757530  26.0969186 103.9435959  22.2413015  25.3563190
 105.1650715  22.9724979  25.8704662 104.5356274  56.6598701  35.6067729
 104.2172432  55.7571888  35.6121731 104.1866493  57.0320892  34.7968960
 101.9204044  40.5344534  49.4892502 101.4078808  40.5051565  50.2971458
 102.6810741  41.0729218  49.7075653  71.4114237   2.2489990  37.3911524
  70.6884336   1.7464942  37.7666664  71.6608238   1.7602806  36.6068172
  75.5700302   1.3335785  67.7926874  75.7728481   0.4949185  68.2071114
  75.1075935   1.8291058  68.4685850 100.8684826  52.4362230  47.0191383
 100.5089664  52.2767973  47.8918123 101.0648537  51.5637255  46.6779280
  37.8723431 103.9627171  64.7469091  38.1856012 103.3872318  65.4447079
  38.6414957 104.4733906  64.4942331  97.9801655  30.1472640  55.0364780
  98.4922123  30.7627535  55.5610895  97.0857334  30.4859853  55.0750780
  69.3599081   7.1193880  41.6531515  69.3404722   6.3263655  42.1888447
  70.1314354   7.5962353  41.9590807 107.4877548  28.9512587  25.8535624
 107.4577236  28.4810543  25.0203538 107.7813244  28.2968521  26.4874387
  91.6650677  29.0619326  47.6088095  91.7086220  28.1475806  47.8886223
  91.0459137  29.0597820  46.8788242  23.1908178  97.9490852  40.5512905
  23.6533284  98.2724190  41.3244486  22.4061894  97.5266647  40.9007931
 102.4626923  15.3997409  13.9052141 102.8347111  14.7167277  14.4631827
 103.2154179  15.7664561  13.4413612  90.7700539  32.8992414  79.7695637
  90.1694012  32.2175670  79.4682837  90.5572891  33.6612010  79.2306948
 105.8891010  37.0399261  70.6263018 106.5646839  36.3660455  70.7019138
 105.0666714  36.5515518  70.5899286  41.5826416  35.6545925  46.2221098
  42.3465109  36.2095833  46.3793612  41.3645411  35.2977371  47.0831060
  52.6439571  95.1883507  46.5310860  52.7353096  95.7266712  47.3172760
  51.9441319  95.6097889  46.0322237  90.0379944  12.2709584  49.4298887
  90.8379078  12.6628125  49.7803450  89.6266842  12.9745293  48.9278507
  93.7305641   3.2569066  26.7495036  94.6554756   3.4603038  26.6101646
  93.3424950   3.2955638  25.8753538  25.1483083  88.5375309  22.4287009
  26.0645270  88.2920456  22.5572038  24.6523380  87.8638458  22.8938866
  92.8563595 102.8399658  46.3634729  92.4652290 103.6998367  46.5179586
  92.9540348 102.4608421  47.2369480 104.3105507  30.4706717  73.4997082
 104.1461754  30.7881141  74.3876457 104.0111351  31.1809349  72.9321623
   5.4347944  39.4593334  29.3880749   5.2153832  39.5572996  30.3146243
   5.2377361  40.3135109  29.0036583  72.9607773  39.6244621  29.6548700
  73.8939047  39.7357464  29.8368573  72.8912592  38.7417078  29.2913508
  93.2473564  12.9390585  24.6718645  93.0085754  13.7811041  25.0593877
  92.6732922  12.8543425  23.9106131  12.6624858   6.6489375  19.4242477
  12.8555906   7.1446460  20.2199960  11.9273520   6.0854071  19.6655858
  85.8224964  13.6674953  39.0717793  85.4537582  13.6511719  38.1886053
  85.0604153  13.6363685  39.6501279  86.4995384  41.4548922  30.5387402
  86.2907696  40.5372715  30.3637767  87.3316574  41.4253902  31.0109043
  65.9274769  99.5166397  35.3871536  66.0258532  98.8022327  34.7577262
  65.3816795 100.1603317  34.9354911  52.8201103  94.9759865  59.8874426
  52.7325964  94.1123772  59.4840097  53.0308294  94.7924232  60.8029413
  83.2881451  22.3127222  54.7027445  83.4836769  21.7947364  53.9219189
  83.5528755  21.7538714  55.4333830  75.1227903  19.3979204  27.5290847
  75.8250523  20.0270581  27.3640323  74.3186474  19.9119937  27.4561596
  89.1026211  13.6366916  47.2322702  89.3133259  13.3346307  46.3487577
  89.2685699  14.5791125  47.2091389  94.1245270  27.4766207  34.7875237
  93.5874939  27.5761318  35.5736041  94.6822262  26.7209935  34.9725389
  78.1787300   9.1678077  41.7261457  78.5986328   8.3091021  41.7765522
  78.0435658   9.4222790  42.6389503  41.3291454  87.2184753  87.4876499
  41.9912386  86.9284821  86.8601322  40.8359337  87.8930759  87.0208549
  98.7064075  26.4308810  42.2033262  99.2980766  27.1832275  42.2151136
  98.9618111  25.9375143  41.4238453  12.3422623  66.5303898  26.4268827
  13.1905246  66.8367290  26.7475677  11.7311585  66.7325163  27.1353507
  94.4058895  49.1157722  76.6493845  94.0959644  48.7268257  77.4672461
  93.6698818  49.0205240  76.0448647  32.1442652  70.3838634  89.4268990
  33.0145454  70.4066658  89.0289879  31.5981722  70.9052706  88.8385487
  95.2538490  41.8522072  28.4048915  94.9606800  41.0875416  27.9093385
  96.1697006  41.9655752  28.1507659  95.0102043  24.5203876  20.7017970
  94.8289871  25.3342319  20.2316427  95.5380440  24.7903538  21.4532876
  25.8150816  41.3834476  37.0471978  25.8870554  42.2265911  36.5997982
  26.6958451  41.0115576  37.0004702 109.2946529  17.4098134  20.6808996
 109.4248486  18.2872748  21.0405421 108.4866905  17.1005332  21.0904980
  97.3212814  94.7957611  45.5798006  98.0569077  94.2564106  45.8699465
  97.4701691  94.9196339  44.6424007 101.9781399  69.2515659  24.9542165
 101.3268280  69.9522638  24.9865413 101.4652348  68.4535027  24.8267198
  94.1029835  70.1990461  13.5536838  93.9453697  69.7914267  14.4052923
  95.0219440  70.0099182  13.3640265  84.7700310  48.1521702   4.8497331
  85.3262806  47.9876709   4.0883136  84.0491104  48.6821365   4.5096725
  98.7433052  45.3107023  52.8441048  99.2200089  45.9590816  53.3623600
  99.3411922  45.0878572  52.1305895  92.9372025  26.3457513  18.0140483
  92.6179981  26.9625378  17.3553288  93.4839058  26.8761110  18.5937619
  56.6647243  59.6591043  80.7626343  57.0325375  60.5074692  81.0100651
  56.0120344  59.8668528  80.0940037 101.5278053  23.7627459  70.0195885
 101.2720585  24.5443344  70.5094290 102.2082996  24.0680838  69.4196463
 105.5782318  18.1227434  32.0731187 104.6603775  18.2297122  32.3228097
 105.8982754  17.4162614  32.6340842  15.2953935  19.1362143  49.5834064
  15.4264259  19.1835344  48.6363983  14.6727300  18.4192097  49.7035122
   6.3957721  65.1893759  25.2584338   6.6024053  66.0592127  24.9164939
   7.0607436  64.6172619  24.8753810  20.8980465  17.9025960  67.2300577
  21.1037183  18.2846129  66.3768339  20.1835179  17.2908771  67.0526361
   6.2209570  69.8590422  41.5709782   5.4161203  70.0444937  42.0547962
   6.9138551  69.9127293  42.2291899  95.5308342  62.1701908  48.5802031
  94.7852993  62.7616930  48.6828279  96.1142159  62.3919821  49.3059444
  51.6721153  78.6211061   5.2998614  50.7562304  78.7996674   5.0865567
  51.9475079  77.9740143   4.6505055  26.8594337  46.5624857  33.1684995
  27.3080039  45.8810854  32.6677918  26.9488668  47.3510551  32.6333427
  13.1905818  33.2872725  48.9983273  13.8221037  33.7981296  49.5047188
  12.9979956  32.5293732  49.5503521 111.3072014   6.2676871  48.0787039
 111.2381363   6.3662976  49.0283012 112.1748352   5.8880299  47.9398012
 104.3241692  23.1782794   8.7449437 104.0943241  22.7862859   9.5874071
 104.7464275  22.4702144   8.2585585 108.6375809  34.7708416  34.3971467
 109.2598534  35.2718830  33.8699198 107.9288483  34.5555377  33.7908745
 101.6720581  15.9713030  60.6947708 102.4448681  15.4113245  60.7683945
 101.0295486  15.4332042  60.2323151  90.4128170  37.8370428   9.6879417
  91.0934830  37.6586103  10.3368473  90.2682686  36.9957161   9.2549187
   1.0465845  11.3078189  20.2483988   0.4682555  10.9893525  20.9414697
   1.3933602  10.5135715  19.8420155  86.2854576  40.0233412  62.6945114
  86.4004517  39.2904329  63.2993698  85.3623772  40.2618122  62.7799320
  10.2392745  62.1604872  75.0607347   9.2852902  62.2232199  75.0137329
  10.5491138  63.0313396  74.8120499  82.0730305  12.8192079  28.0252838
  82.1882343  12.3429656  27.2029996  82.4700928  13.6751080  27.8640103
 108.8173008  66.9226027  61.2849808 108.4931850  66.2518883  61.8860865
 108.5801888  67.7515697  61.7007065  96.5502644  41.6399145  32.4562168
  95.8323193  41.3397264  31.8988299  96.1879063  41.6254425  33.3420610
  97.6049042  29.4930243  20.9637380  97.9340935  29.5201445  21.8621421
  96.9897461  30.2245426  20.9118772 112.1316632  31.0502505  55.8374548
 112.7696408  31.2709832  55.1588583 112.1013051  31.8249989  56.3987732
  12.7252316  37.4829650  54.3182802  13.4779382  37.9429126  54.6899128
  13.1084943  36.7691255  53.8085985   1.1233293  51.1656427  45.4443407
   1.8725052  51.3699293  46.0040140   0.7231577  52.0154524  45.2601814
 111.0552883  33.4099984  34.8923230 110.1002884  33.4370279  34.8334384
 111.3272572  32.8899503  34.1361380  18.8680351  52.2429514  44.6257591
  18.5543513  53.1007957  44.3395138  19.8140466  52.2740507  44.4831896
 103.7963963  28.3143163  66.7220020 104.5771599  27.8765011  67.0610428
 103.2052231  28.3653498  67.4730968  15.4455125  37.1559477  73.8976383
  15.6629753  36.6990256  73.0851316  15.0277925  36.4892912  74.4429016
 105.5081177  55.5332518  52.1157694 106.2566757  56.0419416  51.8041182
 105.0538063  55.2623415  51.3179970 101.3276958   7.2026968  51.2316465
 101.8740368   6.8394828  50.5346394 101.1883640   6.4708859  51.8327045
 108.5488796  32.0100474  39.6567631 108.6990643  32.9334283  39.4541597
 108.0327606  31.6839433  38.9195299 101.3463020  29.8886514  62.8863144
 101.4071751  30.8409286  62.8108501 101.0359764  29.7384977  63.7792730
   8.6680144  37.4237752  35.9582210   8.1129289  38.0798960  36.3796687
   8.8775283  37.8005552  35.1036024 100.5905914  54.4696379  40.2774906
 100.4923439  53.9553308  41.0787821 101.5227127  54.6847057  40.2437115
   9.6388745  18.8420105  44.3941069   8.6819118  18.8521838  44.4128275
   9.8826033  19.7277796  44.1253281   0.6949866   4.4079939  49.5123100
   1.2671873   3.6467659  49.6090031  -0.1876648   4.0627038  49.6462250
  92.9231834  20.2904320  17.1339238  93.7673569  20.4742980  16.7218518
  92.2750950  20.5698252  16.4872777   9.0562510  40.9098768   6.7651588
   9.4366151  40.8896399   5.8870095   9.2821717  40.0602150   7.1436679
 110.9278488  19.6338034  55.8016396 110.0340939  19.9425137  55.9503937
 111.1521244  19.1557610  56.6000175   2.3756035  25.4673529  17.0961845
   1.5217671  25.8876657  16.9935572   3.0000356  26.1927652  17.1059048
  80.8414364  53.4089422  20.9147334  80.6247807  52.9624176  20.0962543
  80.0170326  53.8051128  21.1969304  10.9202230  12.5491834  69.0973949
   9.9724078  12.6535225  69.1810131  11.2077618  13.3355951  68.6335945
  81.0099888   2.0741415  36.3986111  80.1421165   2.0643964  35.9949589
  81.4620876   1.3238949  36.0126519  14.2194486  63.6564922  38.1005216
  14.0311873  63.0737305  38.8361716  13.4053516  64.1412497  37.9645514
   8.2177216  43.4535360  42.6321411   9.0432739  43.7164068  42.2252083
   8.3535039  42.5390863  42.8802729 109.7414589  25.1367331   4.2214417
 109.1875744  24.3886638   4.4446883 109.1982174  25.6731176   3.6440307
 101.7763329  53.0951643  25.3028727 101.1707687  53.4616613  24.6585107
 102.5191212  52.7856064  24.7845340  20.1226449  14.3173862  48.1263924
  20.4456687  15.2048230  48.2824183  20.2148104  14.1915417  47.1819878
  97.8103352  13.3529067  76.4509630  96.9628906  13.1941843  76.0351753
  97.6337528  13.2826066  77.3891020  89.7332287  12.8748930  37.7957392
  88.8084793  12.8752863  37.5486255  89.7280216  13.0110025  38.7431979
  17.7026081  33.4970498  69.5197201  18.3117759  32.8022122  69.7694159
  17.5900233  34.0147734  70.3169155   6.0153234  22.0076060  41.1432505
   6.7573231  22.2678924  40.5974293   5.3420597  22.6630306  40.9605837
  80.4661465  60.1172066  33.7711692  80.4270458  60.2489281  34.7184539
  81.3939476  59.9692440  33.5880256  17.1367836   7.6441836  45.0580359
  17.5019681   7.4151814  44.2033815  17.8937268   7.9166692  45.5767059
   6.4165193  34.7042680  44.9842310   5.4911345  34.4866276  44.8723030
   6.8018973  34.5638514  44.1193581   0.5276615  47.4102116  53.9760971
   0.1472440  47.3508549  53.0997467   0.9748682  46.5730619  54.1002798
  11.6273785  29.3067312  31.9524741  11.9067264  28.4287214  31.6930628
  11.8048668  29.8509741  31.1853170  36.6188669 103.1005096  19.3474269
  36.5058732 102.2318077  18.9616704  35.8194876 103.5722446  19.1135633
  59.7200203 102.0178413  83.5479736  59.7609138 102.8064251  84.0889931
  60.4001570 102.1455479  82.8866577   3.7036043  28.5968924   4.2329687
   3.5328203  29.0108013   3.3869517   3.1346011  27.8272295   4.2422688
  97.9924202  33.3265758  69.1958523  98.8421059  32.9892683  69.4795561
  98.0582237  33.3696532  68.2418871 108.1884575  46.6837215   6.1120075
 107.4156570  46.1215258   6.0577130 108.5628319  46.4938164   6.9722468
 100.4102898  27.3469019  52.0409966 100.8858109  28.1532669  51.8412876
  99.7327995  27.2951317  51.3667822 108.4801006  36.8323922  25.6102705
 108.7086487  37.7547812  25.7251668 109.3174458  36.3707852  25.6551123
  22.2293186   6.6870916  67.3289776  21.4264321   6.1995995  67.1447086
  22.1129847   7.0114130  68.2220125 103.2831192  34.0468979  82.8520584
 103.3778000  34.9877024  82.7032185 103.7644291  33.6407351  82.1312237
  32.4505997  24.3770266  44.5852995  32.0712113  23.5131049  44.7463417
  33.0337954  24.5250607  45.3297472   7.2913337  33.9630151  53.9532042
   6.3370496  33.9810562  53.8807583   7.5211751  34.8232722  54.3044376
  90.6138134  59.0192938  48.5872698  91.5516567  59.1943073  48.5094500
  90.5618477  58.2226562  49.1153812 108.5548401  47.3445654  31.9438481
 108.7789822  47.7837420  32.7642846 107.9928398  47.9682636  31.4840817
  98.2961178   9.4319147  60.0725794  98.9061451   8.8648641  59.6008253
  98.1243134   8.9691305  60.8926678  11.7895699  35.3413415  63.9431143
  11.8101549  35.2913380  62.9874420  10.9720135  35.7979274  64.1415071
   6.2188143  46.3543558  27.7868915   5.4477376  46.9160795  27.7085519
   6.0092890  45.7589626  28.5065007  84.3673038  57.1804523  43.3606434
  85.1324177  57.2537470  42.7901506  84.6602535  56.6265011  44.0842152
  43.8505220 104.5323658  18.1582892  43.9080334 104.4316387  17.2081435
  43.3812523 103.7522125  18.4538782 108.9019203  50.8715487  52.8116226
 108.2002735  50.2418280  52.6461601 109.6058273  50.3499794  53.1972504
  95.3120899  20.5651927  36.1493802  95.9757900  20.8707070  36.7677641
  95.6926060  20.7331252  35.2872705  12.2389591  67.5489187   2.3049951
  12.5188601  67.8292656   3.1763694  11.3107598  67.3388243   2.4076408
   4.3679392  33.6856270  52.9156303   4.1805577  33.9684415  52.0205688
   3.8384634  32.8969479  53.0334139 110.1804638   9.9718779  43.6679459
 110.1236534  10.6238604  44.3664598 111.0043335  10.1693344  43.2224369
 103.6519337  50.6947803  58.2442951 103.5457611  50.7857513  59.1912317
 104.3607712  51.2990046  58.0236197  98.8953400  25.8557868  26.9351888
  98.0966187  25.4290557  27.2453213  98.9882374  25.5607986  26.0293293
  93.4899235  18.7192178  72.0109653  93.4819794  19.2162716  71.1929750
  93.7332344  17.8312147  71.7492819  88.5438538   4.6606708  36.9170761
  88.7948799   5.1040584  36.1067533  87.6011086   4.8097068  36.9895005
 110.8437920  29.7630501  50.3247547 110.8981609  30.7182884  50.2965546
 109.9096966  29.5791435  50.4241180 101.6090870  40.3468418  68.2834196
 102.4613953  40.3333855  68.7188578 101.0864258  40.9610987  68.7989330
 103.6913395  21.9823241  42.0663261 104.4256496  22.0594382  42.6754951
 103.6254692  22.8464890  41.6599894 111.7137146  34.5648074  60.2829695
 111.9747353  35.3984499  60.6743002 110.9631443  34.2800784  60.8043194
   3.0108437  39.1880369   1.2589629   3.6354649  38.4838748   1.4328454
   2.5693741  39.3288398   2.0965257  16.6255689  24.2718196  65.9615660
  15.6909883  24.1280389  66.1102867  16.7687702  23.9983320  65.0555134
  96.1510181  47.2784090  52.8479910  95.5406094  47.2674227  52.1107531
  95.9238529  46.5013123  53.3586311  99.4129562  52.8862715  31.5480185
  98.6132908  53.2214928  31.9534850  99.1406822  52.6121521  30.6722546
  83.4459782  59.9950409  29.0846848  83.5181332  60.7490396  28.4994411
  83.2373714  60.3737879  29.9386549  90.5865192  19.1724825  22.8766847
  90.6766510  19.3288481  21.9366527  90.3844929  20.0328684  23.2443166
 112.4780215  29.3433595  83.3638287 112.8341883  29.9615455  82.7256966
 111.8020041  28.8657331  82.8831005 111.4606571  30.3608441  29.5123386
 111.9858551  29.5635796  29.4432688 110.5975533  30.0556183  29.7918367
   3.6922655   1.1911348  90.7716656   4.0921149   2.0527157  90.6532097
   4.0620711   0.6567940  90.0688457 101.8908978  23.4240723   7.5960433
 101.2543106  23.3660746   8.3085221 102.7299213  23.2157350   8.0069631
  71.7639351  69.7068357  15.4505873  71.6847086  70.4308987  14.8295534
  72.6447964  69.7981739  15.8138704 104.1977882  29.7475958  35.0387263
 103.2776833  29.7501349  35.3026128 104.3975449  30.6660342  34.8576188
   4.2964554  52.6984358  51.6777468   4.4171032  53.2339430  50.8935833
   3.6339143  53.1652880  52.1869850   4.0325177  55.7297182  64.4587421
   3.3413714  56.1027145  63.9115477   3.6653620  55.7315826  65.3427267
  15.4129934  67.6835775  56.6678047  15.3540671  68.3131170  57.3864412
  14.7045326  67.9312754  56.0736990  87.9593754  22.6322913  59.4664145
  88.5742474  23.2767177  59.8169422  88.4806824  21.8364525  59.3610191
  99.3769932  51.8401003  58.1647778  99.8952007  52.5941849  58.4459400
  99.2904568  51.3021183  58.9517450  88.1391525  30.7907104  45.1770496
  87.3395729  31.2806582  45.3690529  87.9085732  30.2395606  44.4291878
 108.6061192  25.8882260  17.0896041 109.4170666  26.0889769  16.6223919
 108.2762718  25.0952125  16.6670418 103.9461231  54.6336317  66.1912298
 104.3078804  54.6713161  67.0766306 104.7098732  54.5229816  65.6249475
  97.5207329  32.0565152  45.1840115  98.1226444  31.8222904  44.4775629
  96.9213676  32.6891804  44.7881079  96.5809727   5.8972728  84.4607544
  96.6114330   5.4924250  83.5939217  96.0287762   6.6704768  84.3447113
  88.6168861  21.7422938  89.3006420  89.0335941  21.4384365  90.1070213
  89.3393898  22.0756531  88.7685776  21.1858392   9.4918758   6.6688973
  20.5979276   8.8080508   6.3480008  21.3298535   9.2714673   7.5891757
  93.1795216  51.2253714  42.6525640  93.7628746  51.7603159  43.1908751
  92.3787212  51.1481667  43.1712008  78.4521437  59.1119003  25.8086181
  79.1879511  58.5027027  25.7478404  77.7944183  58.7532520  25.2127957
   4.2615137  16.7491627  43.7978458   4.0198937  15.9992898  44.3414831
   4.1379037  16.4432967  42.8992939  81.3384342  18.9966846  58.9624500
  82.2877312  18.9881229  59.0848923  81.0595798  19.8433471  59.3112135
   7.6557839  11.2175786  47.7761316   6.9066691  10.8226955  47.3298979
   8.2989430  11.3622987  47.0821333   9.0276623  72.2654676  51.7089319
   9.3324423  73.1653976  51.8249750   9.4911259  71.9539976  50.9314871
  87.9029369   9.7115356  55.4376745  88.0907631   9.0399718  54.7819614
  88.3072758  10.5061376  55.0893164  14.3438756  61.7907953  66.2985420
  14.0903354  60.9587145  66.6980314  15.1805997  61.6064644  65.8717537
   4.4067103  29.0379715  32.4320197   4.3063343  29.4040394  33.3107400
   3.6066711  28.5318470  32.2905755  92.5129986  34.2066622  35.6040096
  92.2436333  33.4663701  36.1477375  92.3495007  33.9166856  34.7065616
 104.4413090  45.8602047  78.1095648 104.0926361  45.7966614  77.2203970
 103.7252712  46.2365723  78.6212921 110.1190853  37.3170495  44.4789553
 110.1474762  36.6933036  43.7534428 110.9844685  37.2538638  44.8831367
  86.5200901  23.4395885  25.5315614  86.4625740  22.5312710  25.2351069
  85.6898689  23.8324976  25.2621412 106.1417675  66.9353533  70.0936270
 106.7637539  66.7819023  70.8048344 106.6349220  67.4436188  69.4496536
  89.2352676  26.3510036  43.4624815  88.2828712  26.3657641  43.3679104
  89.5331383  25.7372141  42.7910900  97.3553562  41.1267471  56.1783075
  97.0206928  40.3740549  56.6658401  97.2252369  40.8937740  55.2590561
  27.3165345  63.2476330   9.5234478  26.7076874  62.5552559   9.2662543
  28.0441785  62.7846527   9.9386764  75.6039858  44.7370148  14.7358286
  76.3196325  44.4954872  14.1478288  75.8587503  45.5910683  15.0849891
  58.7844372  12.3056328  72.2659445  59.4315863  12.1077180  71.5889931
  57.9472685  12.0488560  71.8793678  44.2529869  75.9360552  59.5217609
  44.5807409  76.2793589  60.3529978  43.3314991  75.7395124  59.6904707
  86.3304520  60.2894020  39.1627145  86.0022831  61.1825275  39.2669153
  86.5485001  60.0091219  40.0516081 105.3115845  17.8385472  87.8852272
 105.1858330  17.0566690  88.4228992 105.2952003  18.5638165  88.5096931
 106.6345978  34.5370579  32.5678205 106.3117886  35.3534007  32.1862268
 106.8768597  33.9995408  31.8137574 102.7722168  46.8703318  57.6068401
 102.2903252  47.6283693  57.2760916 102.2634888  46.5737391  58.3614588
  96.2197208  57.9359579  35.6331706  96.5431404  57.2186422  35.0881124
  96.9677067  58.5269117  35.7199025  26.9060349   8.8231748  37.9405022
  26.2220502   8.6268842  37.3002934  26.4521050   9.2945790  38.6390400
 103.3084774  35.8713102  61.2375832 103.8721466  35.6689262  61.9842720
 102.4205303  35.7124162  61.5577888 106.0717964  13.0429673  19.4800830
 105.6347847  13.3356118  20.2798438 106.1471176  12.0941687  19.5817590
  72.6147263 105.8222033  42.6805115  72.5068467 105.4927813  43.5727406
  73.1092255 106.6352804  42.7835464   8.6535507  10.1283908  56.1816311
   8.0205482  10.2094054  56.8950605   8.1177729   9.9896330  55.4006577
  42.7483463  22.9107213  63.5253429  43.2360983  22.9003668  62.7017975
  42.6273155  21.9866443  63.7436628 104.1102886  20.6014419  28.2956338
 104.3368053  21.2559962  27.6349664 104.7639084  20.7205081  28.9847159
  56.8179941  80.6921768  72.4023771  55.9853506  80.4338169  72.0071697
  56.6758728  81.5930557  72.6929712  98.4679508  23.4257960  52.0094299
  99.1312218  22.9625821  52.5210285  97.7794075  23.6327314  52.6413393
 100.3073025  22.2319150  48.4821463 100.6245995  21.9138122  49.3273449
 100.9235477  21.8721485  47.8441429 105.5866337  47.4325466  37.7532697
 106.4117432  47.0299673  37.4824381 105.4745388  47.1596861  38.6638784
  82.1078205  18.6183000  30.5192661  81.6294098  18.5133183  31.3416648
  82.6603127  19.3871701  30.6600428 101.7689800  62.8446436  65.4147482
 102.6295280  62.4738312  65.6101799 101.9021606  63.7917852  65.4523325
  99.1150951  21.7614031  28.5710120  99.9962902  21.9947648  28.2789969
  98.5733318  21.8424606  27.7860546 104.2501163 102.4211884   5.2968806
 103.7423515 101.8785954   4.6935561 105.0671482 101.9387531   5.4231256
  94.8436737  50.3332043  31.3197708  94.1504002  50.9449911  31.5674114
  94.5459366  49.9561930  30.4918528  10.6791544   1.0469285  53.0797148
  10.5042148   0.4723420  53.8250208   9.8436028   1.4827678  52.9119921
  47.0342588  25.5187941  61.1900711  46.6591692  26.2820864  60.7508421
  47.8512526  25.8396459  61.5719223 105.5469608  50.4433441  13.7589705
 104.6795368  50.2699947  13.3932459 105.6677914  51.3868475  13.6520493
 104.5443344  22.5606084  11.5911865 105.1632977  22.8075433  12.2783172
 103.6830330  22.6687932  11.9945121 112.0809937  34.7047734  43.2315779
 112.4264812  35.3534675  43.8448191 112.0099258  33.9015794  43.7473917
 110.0435448   9.2167670  53.4378719 110.5318737   9.1956037  54.2608643
 109.2677021   9.7422868  53.6331654  77.2247219 101.0215950  38.8042068
  77.7961445 101.3609409  39.4930816  76.3382578 101.1760044  39.1306615
  14.9420309  72.8239870  63.4496212  15.8417010  73.1303549  63.3357620
  15.0180721  72.0694113  64.0336323  96.7336845  47.6428747  58.4699869
  96.4910889  48.2123613  57.7398729  96.0252762  47.7519083  59.1044188
 100.4758072  16.2212265  26.1630702 100.8499241  16.4830017  25.3217983
 100.1175785  15.3478611  26.0045195 108.9710140  15.9489846  65.2614832
 109.1835785  15.7812238  64.3433857 108.0385017  15.7450402  65.3325605
   3.0642554  76.2866592  37.2651196   2.2301131  75.9116364  36.9826365
   3.2086036  77.0238161  36.6718245   8.6925101  77.8936863  11.1797166
   8.8415849  77.1042061  11.7000341   8.8699335  78.6152601  11.7831123
 106.8832684  59.5008612  59.1648960 107.7198601  59.0618896  59.3186998
 106.7151737  59.3755388  58.2309437  92.2624588  60.0135374  70.5873871
  92.3845863  60.8332682  71.0663033  91.8154335  60.2714443  69.7812319
  50.9233809  92.0377922  21.7534232  51.6708565  91.5826130  22.1411395
  51.0090208  91.8810844  20.8130288  99.5205021  25.9308147  15.8103955
  98.8181019  25.7543397  15.1845264  99.1032410  25.8492565  16.6679919
  94.4970894  39.6912575  50.6419945  93.7363625  39.9779725  50.1367092
  94.8121643  40.4860783  51.0723639 101.2559128  85.2830124  53.3495522
 101.6536713  85.5904388  54.1641140 101.6185665  84.4064236  53.2218504
  18.6810267  83.9592648  55.7969904  19.3574142  83.3213615  56.0246229
  17.8581393  83.4791183  55.8894444  16.5601981  28.2531047  34.7843862
  16.9442677  27.8917027  35.5832052  16.9911122  29.1006184  34.6736383
  17.2733009  47.5460672  62.2677135  17.6023078  47.1518755  63.0755472
  17.9683256  48.1439734  61.9926071  63.7604952  85.1797581  71.6262817
  63.8031292  84.5798492  72.3709440  63.5371828  84.6215248  70.8814716
  97.6494122  47.9544926  29.2879820  98.0141449  48.3438015  30.0827408
  98.0189037  47.0718527  29.2623067  22.2244191  49.7191000  38.4153533
  21.8022943  49.5351982  39.2545342  21.6473556  50.3540611  37.9910302
 102.0739746  33.3338451  65.4886055 102.7979374  33.2897735  66.1132288
 101.6738129  32.4650240  65.5240631  79.2665195  25.2275872  66.4174652
  78.8968945  25.7124829  67.1553564  78.5311079  24.7229385  66.0700083
  13.6539972  32.8801227  64.1470957  14.1656673  33.4302497  63.5539818
  12.8349161  33.3595181  64.2716742 106.7078590  60.9973764  71.8898821
 106.7715740  61.9501162  71.8230486 107.1776009  60.6714821  71.1221790
  92.7102566  49.2450142  66.1802340  93.4617996  49.4637775  66.7311859
  92.7050972  48.2882738  66.1510372  81.0973167  53.2471657  29.7926641
  81.7147255  52.5368166  29.9671507  81.1640644  53.8162661  30.5594110
 102.8238678  30.1551390  48.2973289 102.6504230  30.5337930  47.4354887
 101.9687557  30.1360774  48.7270546   8.4261447  38.9586782  33.2211924
   7.5909680  39.1509080  32.7948594   8.5534114  39.6815681  33.8355756
  28.2362676  12.2825754  79.9259233  28.7532830  11.7454576  80.5262852
  27.3827910  12.3637068  80.3516293  99.5046425  85.3796196  57.0072079
 100.2785206  85.9033871  57.2146177  99.1305637  85.1570415  57.8597069
  21.6909885  75.5622482  85.5541325  21.3049603  75.0756931  86.2824726
  22.5698423  75.7900715  85.8573627   9.6063334  52.9225302  36.9638729
  10.3862536  53.4673929  36.8586111   9.3351030  53.0651903  37.8706884
  90.1859665  89.8718834  80.0027847  89.5871162  90.1226711  79.2994261
  90.2687263  90.6602287  80.5393505  21.8143249  85.4307270  44.8851728
  21.8953490  85.1181412  43.9840841  21.8339252  84.6353054  45.4172897
  42.8411627  64.5012665  42.5382185  43.7349749  64.8175478  42.6697350
  42.8898287  63.9690590  41.7441082   8.8134563  27.1420550  60.6186104
   9.2273170  27.9646921  60.8797979   8.7529993  26.6364431  61.4291239
   9.0248173  32.3235106  55.2220869   9.9442327  32.3706222  54.9600029
   8.5542154  32.7868676  54.5292187  20.4872775  47.9611540  42.8243017
  21.1409640  47.2619295  42.8262568  20.3524542  48.1655788  43.7496471
  95.8019829  62.1934319  37.2895670  95.5598927  62.8465319  37.9461384
  94.9754906  61.7708206  37.0560241  11.2763953  52.7179527  68.4670973
  10.7618284  53.3081579  67.9165459  11.6151214  52.0592546  67.8607845
  51.2267303 104.0848732  84.3615913  51.5453148 103.3659077  83.8158607
  50.8033705 104.6833420  83.7460995  79.8838806  64.6911860  69.2298889
  79.7884512  64.2450380  68.3884192  80.7596684  65.0762224  69.1988754
  92.6519966   3.8075554  63.4440947  92.6977634   3.3587816  62.5998545
  92.2906303   4.6695900  63.2378340 112.0878315  52.1500492  56.1610746
 111.9685555  53.0528879  55.8663225 112.7177238  52.2137165  56.8790007
   5.9025633  54.9755526  24.2510223   6.5367430  55.1484060  23.5551977
   6.3842338  54.4485426  24.8885846 111.9614578  19.8921037  43.3868504
 112.0992844  20.6570888  42.8282499 112.3292288  20.1445627  44.2337513
  13.9192247  72.7186632  71.2839890  13.3758378  73.4285259  70.9418535
  14.3068480  73.0772209  72.0823765  16.8195927  56.8812513  40.5582190
  16.8933892  56.5048981  39.6812105  16.0049546  57.3833323  40.5356216
   4.1916975  68.7464476  17.5959587   3.4301308  68.2475376  17.3004317
   4.9221748  68.3906603  17.0899427  26.3419294  53.9804506  24.0357375
  26.9985390  53.2934809  24.1505027  26.4362359  54.5338392  24.8110437
  40.4556561  84.1450977  11.4893985  40.8314466  83.5215187  10.8679771
  39.6206546  83.7537766  11.7460513  99.7954082  65.8674383  55.8500767
  99.0822887  65.7875490  55.2165842  99.3903828  65.6650782  56.6934252
  24.9995947  43.2789421  74.3290472  24.5854115  42.4468803  74.5578671
  25.6517410  43.0479383  73.6675549  14.1783857  43.0370903  30.9149885
  14.8532033  43.6470509  31.2129807  13.7548649  43.4869480  30.1839018
  25.4270196  57.5769567  34.4330287  25.4879165  56.6310787  34.2994928
  24.4892168  57.7462626  34.5229816  96.5892029  58.3721018  44.7736120
  97.4476719  58.0376673  45.0332451  96.3378620  58.9633179  45.4832029
  96.4720154  63.6126518  13.6777353  96.4584827  64.4975948  13.3131504
  96.5864468  63.7431479  14.6190691  14.2712247  66.8284750  47.2270489
  13.3794904  66.7866898  46.8816566  14.1887009  66.5463781  48.1380081
  10.4596913  55.7030535  58.8309479   9.8989815  55.4546404  59.5658827
  10.1073611  55.2164841  58.0857325 109.4340897  69.9248695  48.9430428
 108.9179516  69.1347361  48.7832689 108.8010788  70.5613327  49.2753553
 103.4759998  56.5444851  53.9949179 104.1660309  56.3015890  53.3775949
 102.9904556  57.2392511  53.5501909   7.5938576  96.3125324  25.7454443
   7.6573753  95.5600739  25.1572227   7.4420452  95.9291267  26.6092634
  78.1311035  49.5658398  29.6915936  78.5288525  50.2500248  29.1531515
  78.4941435  49.7077179  30.5658388 105.3927898  51.2655401  52.2048903
 105.5182648  50.4380226  52.6693296 104.5410061  51.1738205  51.7779541
  29.1410708  58.6694670  78.1092358  29.5815134  58.0181837  78.6551952
  28.3842111  58.2074547  77.7487612  87.2246933  72.2022343  35.2020240
  87.1292019  71.8134069  34.3325853  87.4953270  71.4742756  35.7615447
  42.7740145  75.9511662  48.4917879  42.9100180  75.2286053  47.8788948
  43.4115791  76.6138458  48.2260799  14.4225121  34.1491604  67.4493313
  15.3428602  34.1378069  67.1865368  14.1481280  33.2334375  67.4003458
  92.7500343  23.6967039  38.1422400  92.8918171  24.5598555  37.7535248
  92.5567818  23.1274056  37.3974013  12.8470600  37.3486948  84.6407795
  13.3511627  37.9339981  84.0755081  13.4774745  36.6855311  84.9218941
  85.4451084  52.3489237  62.0876408  86.1295414  52.9061413  61.7171049
  85.5205631  52.4738741  63.0336475  92.8781796  59.0281677  45.6598568
  93.5930443  59.5633411  46.0045290  92.7105999  59.3853092  44.7877359
   1.5983634  51.0598612  18.9054334   1.3369671  51.8704891  19.3422282
   2.4089770  50.8019495  19.3443167  85.2375889  50.0751638  65.4946232
  86.0723686  49.7014904  65.7770014  85.4369926  50.9923697  65.3069973
  87.5124359  47.1282291  53.0360270  87.9179382  47.7152157  53.6741829
  87.9489517  46.2874079  53.1727982  56.6740084  79.0505934  26.4009714
  57.3156595  79.5981598  26.8533993  55.8552027  79.5428705  26.4597058
  23.6809921  32.2263932  48.8362789  24.1759658  32.3196626  48.0223179
  24.2450452  32.6141810  49.5053816  89.5228291  47.5511312  59.3258047
  90.2349281  47.6682377  59.9546480  89.0653229  48.3919144  59.3227339
  61.7599249  78.0770922  19.6106791  61.5741301  77.6550579  18.7718725
  61.1018467  77.7221680  20.2083373  99.9755383   4.5874321  19.2650807
  99.4205856   4.8774794  19.9890494  99.8157406   3.6456957  19.2032075
   5.9772986  15.8203948  31.7201138   5.9210193  15.4348600  30.8457994
   6.5239996  15.2108645  32.2159195  66.8455791 101.2921143  22.2911072
  66.7170620 101.6484451  21.4120460  67.5444412 100.6462288  22.1879292
  75.9471560  96.6073895  47.9958630  76.8794203  96.5049076  47.8045130
  75.5197430  95.9265423  47.4762583 107.9507542  43.8422060  61.5476418
 107.9165936  44.2540073  62.4110556 108.2982063  42.9659081  61.7138100
  59.0113640 102.0846272  25.2641439  58.2733297 102.2311592  24.6724844
  59.2334414 102.9566097  25.5905724  76.1024380   2.0205133  42.3419428
  75.9235287   2.1704061  41.4136314  76.5419722   1.1705646  42.3669577
 101.3353729   1.1964434  27.7112699 102.0601082   0.9500350  28.2859731
 101.4943409   2.1179853  27.5070071  60.4720831  18.3092618   0.3371112
  59.6430922  18.3293295   0.8152395  60.2521086  18.6306572  -0.5372727
   3.1102356  10.0484502  16.5686452   3.8658923   9.7928107  17.0976663
   2.8703323  10.9150732  16.8967366  29.4020915   6.6188401   3.0350664
  29.5885134   5.7041329   2.8234333  30.1729298   6.9145119   3.5194406
  54.2941332  87.7287674  29.1774464  54.7406101  88.0784988  29.9485397
  53.3997631  87.5606632  29.4742250  87.0004940  70.8098841  41.2538004
  86.8125725  71.1066341  42.1442270  86.1388397  70.6861830  40.8557034
  86.1275196   4.9565324   5.5625933  86.5301132   4.1083029   5.3764182
  86.8080521   5.5959690   5.3522903  70.1085901  46.6175365  22.5157785
  70.7256603  47.2701979  22.1848869  69.3631124  47.1298313  22.8289008
   7.6829636  14.9617207  21.2194419   6.7877835  15.2994359  21.2483144
   8.1754673  15.6291771  20.7417655 112.1650301  39.4153976  73.9563751
 112.1997943  40.1168251  74.6067810 112.5082944  38.6476541  74.4135094
  39.5469117  94.4666672  26.2413311  38.7299538  94.4939899  26.7393923
  39.2778325  94.2352867  25.3523493  77.1661472   6.7133504  45.4229689
  76.7080021   7.2192419  44.7518444  76.8738270   7.0940709  46.2511206
  91.5252876  26.3904667   9.0139472  91.0239506  27.0492363   9.4944870
  91.0698700  26.3069773   8.1761813  69.7425556  15.8865356  41.3462687
  69.2264128  16.2490523  40.6262636  70.2048922  16.6402984  41.7127657
  72.8230619 100.8088779  43.9620638  72.4821091 100.0740337  44.4719505
  73.7732172 100.7488346  44.0612507   3.4768671  49.6092176  84.5766544
   3.7366569  50.5249214  84.4754887   2.5951493  49.6499157  84.9469948
  94.2522621  31.4522624  43.0040979  93.4886456  31.8494558  43.4228516
  94.6761894  32.1761227  42.5430727  62.0627117   3.1745663  31.0020518
  62.5544786   3.2485655  31.8199253  62.2841740   2.3056249  30.6671977
  88.7654209  23.1964421  70.9101343  88.9535236  23.8434219  70.2302313
  89.3682671  23.4139848  71.6211128   2.4949142  17.8486192  45.7826853
   3.0464616  17.5239027  45.0709343   3.1035069  18.2904410  46.3748312
  99.9237442  10.7469821  48.1568432 100.7106304  10.2027476  48.1860781
  99.1993904  10.1241624  48.2171535  25.9618783 104.2167282   2.7861607
  25.3334641 104.7582531   3.2637370  26.2309861 104.7593307   2.0449513
  80.3677082  91.8013859  24.3944955  80.0625992  92.4474525  23.7575245
  80.7657242  91.1113071  23.8638306 109.6171474  39.7575855  41.1209011
 109.9982548  39.2361689  40.4144192 110.2364731  40.4760599  41.2492275
  11.4212680  40.0910997  13.6163807  12.2768497  39.9313855  13.2180047
  11.6220272  40.4887915  14.4635940  21.6877103  11.4194524  43.2829952
  21.4223027  10.8846736  42.5347996  22.2495580  12.0965958  42.9061174
  82.6739693  37.4462867  23.6142135  83.1240273  38.0660200  24.1883278
  82.2875786  37.9916954  22.9290390   1.9785406  47.9750347  41.8505144
   2.7480322  47.7818155  41.3149929   2.3051797  48.5543299  42.5389624
 100.9969902   7.8980041  38.4604263 100.4139137   7.3562038  37.9287314
 101.4538670   8.4512323  37.8268385  71.1852312  12.7643204   1.4156169
  70.9082747  11.9877553   0.9293313  71.9014406  13.1294656   0.8960546
  38.7343955  97.8931999   4.2497185  39.3650174  98.3233070   4.8272562
  38.6390591  98.4931850   3.5100186  90.8577251  12.2257304  44.7734833
  90.2013588  11.6193342  45.1165533  90.3628254  12.8209114  44.2103910
  23.9986348  94.6679306  64.4391060  23.0846238  94.5285225  64.1913605
  24.4214177  93.8241196  64.2795467  83.5513592   5.8171326  43.0976772
  82.9208374   6.5200788  43.2543421  83.0688095   5.0142676  43.2946205
 107.3468208  19.7988486   1.5423355 107.7001381  20.6809258   1.4268160
 108.0587864  19.3074203   1.9520186  99.0583768  29.2311876   0.9828743
  99.9151578  28.9309137   0.6795773  99.1966000  29.4609468   1.9017586
   1.1096832  33.1100702  36.1302638   0.9552925  32.7429199  37.0006657
   0.3074880  32.9193377  35.6441212  14.0573168  55.6298733  64.7528744
  14.8859155  55.1541090  64.6953917  13.3995199  54.9490356  64.8942852
   6.2468147  17.0607889  19.2517710   5.8545631  16.6333663  20.0131392
   6.5597606  17.9020977  19.5841825  82.4974918   7.5727856  16.2773037
  82.2262287   7.0555228  15.5189586  82.1187592   7.1146613  17.0275795
  -0.2183665   8.5781962  18.1418347   0.0867832   9.3805301  18.5653615
   0.2802405   8.5334855  17.3259771  67.2888517  12.8667700  36.1346030
  67.2059965  12.7023494  35.1952767  67.4536419  13.8074434  36.1994791
  70.5088806  11.2628937  20.8551645  70.1085043  11.1671746  19.9910080
  70.5484056  12.2086418  20.9973979  97.1088696  60.1332283  23.5294342
  97.5114536  59.5005178  22.9345942  96.2171173  60.2395535  23.1982231
  93.3284569  45.4115009  15.1348197  93.4923172  45.6475496  14.2217684
  93.9980412  45.8849859  15.6284881   4.8099908   3.0443192  36.6470790
   5.6764638   2.9335859  37.0384789   4.9699393   3.0308455  35.7034326
  63.4049797  92.7172565  43.2349777  64.1777229  93.1573391  42.8808260
  63.1380320  93.2612896  43.9759159  10.6213343  39.6055722  58.0226660
  10.9335589  40.4102993  57.6089430   9.6864784  39.7556520  58.1632137
   3.7786964  12.7409065  17.7648652   4.3414146  12.4999523  18.5007465
   3.5720345  13.6636388  17.9134870  18.5737860  37.6699185  28.0690694
  18.7016964  38.0217361  28.9500332  19.3889892  37.2071958  27.8752589
  47.6858616  97.6064873  78.0810213  48.1030512  96.7487621  78.1616020
  47.2648239  97.7486324  78.9288187 109.2162418  37.4631834   5.2963567
 108.7502384  36.6276503   5.2653122 108.7584782  38.0163980   4.6634004
  82.2101784  28.6991310  74.9300623  82.9493141  28.0933762  74.8755264
  81.7398453  28.4325910  75.7199860  11.6893554  30.6615639  13.1226778
  10.9044647  30.6759763  12.5749815  11.4539135  31.1797023  13.8923097
  31.2004662  34.0687823  36.4060283  31.4965749  34.6846652  35.7357740
  30.6729746  34.5996380  37.0028329 110.2131367  54.5716763  19.9065697
 109.3399143  54.8790169  19.6631527 110.4027653  53.8706493  19.2830038
  53.3567429  32.0312500  68.1456137  53.1824398  31.2817287  68.7148809
  52.5216198  32.1999979  67.7093601  54.4785452 106.0271931  84.4695377
  53.8763046 105.2878094  84.3868351  54.0375376 106.6294479  85.0687313
  90.5950642  25.8652401  29.9851942  90.0432205  25.1331306  30.2603483
  90.2182865  26.6275668  30.4246593  71.3688660  92.9887009  46.6450930
  70.4767466  92.7186584  46.8628788  71.8847036  92.7562141  47.4171638
  96.5212440  42.1448946  74.6845675  96.0223103  41.6922092  75.3645420
  95.9006786  42.7683067  74.3070889  97.4575615  36.4028692  35.2341843
  97.2832203  37.2222733  35.6972337  98.3684635  36.4776158  34.9497581
   2.0395251   7.3669922  37.1761680   2.6454151   6.9932246  36.5363026
   2.5731152   7.5058252  37.9586244  67.2398186  23.3375955  36.8253708
  67.2789526  24.2190766  36.4543033  68.1549692  23.0651617  36.8925500
  98.7694836   4.3063456  56.3324976  98.3255386   3.9791662  57.1148682
  98.4214211   5.1897573  56.2113953  14.2024064   0.7160795  45.7908058
  14.2338765   0.9766978  46.7113018  13.8512349  -0.1742491  45.8058262
  90.1036072  22.0801306  19.0690553  90.6407166  22.6651168  19.6034110
  90.5331230  22.0752358  18.2136452  99.7463417  86.9734097  24.3080449
  99.8019886  86.9721985  23.3524656  99.6081161  87.8920460  24.5387530
  85.2082253   4.3704161  33.3345628  86.1185169   4.4600403  33.0524898
  84.9658489   3.4794959  33.0820799  12.3497307  32.6463652  42.7586222
  12.5344634  33.5437560  43.0357456  13.1415427  32.3704624  42.2969484
   3.3085006   6.7332661   8.4793031   2.9377511   5.9702146   8.0359870
   3.1041226   7.4686325   7.9016376  82.3055744  10.4065251  48.7293530
  82.3560047  10.2266848  47.7905512  82.9021645   9.7723985  49.1270828
   0.5543515  49.7777081  26.4698124   0.9633172  49.5944357  27.3156214
   0.3376611  50.7093763  26.5054107 111.0708141  36.7564678  38.5830998
 111.2894917  36.2971449  37.7722740 111.0496616  37.6810789  38.3363628
  16.8137085  21.3805795  33.9614892  16.6873538  21.7114925  34.8507380
  15.9267187  21.2625670  33.6215568  97.4749279  81.1996365  17.8871334
  97.5471306  81.9739628  18.4451950  96.5942192  81.2531567  17.5160122
  90.7685661  36.9785118  26.8543911  90.7563210  36.1025882  26.4685965
  91.5538120  37.3888397  26.4920950   5.1556861  39.6107602  14.5422959
   4.3839130  40.1575565  14.3952906   5.5938071  40.0116873  15.2929902
   6.6259509  78.0753803  75.9556818   7.3667657  78.3407736  76.5006495
   5.9579492  78.7412643  76.1187744  92.3259926  15.7908595  36.9516563
  91.6186047  15.1646996  36.7975116  93.1199360  15.2563906  36.9665575
   1.2231867   6.3437033  52.7802849   0.6596438   6.7132753  53.4600401
   2.0887271   6.7101580  52.9613447  90.3396606  55.9001875   4.5750621
  90.1369762  56.6832066   4.0631771  90.2526093  56.1804724   5.4861569
   2.4442127   7.6873165  27.5350809   1.7691654   7.9049516  28.1778693
   3.2590374   7.6780123  28.0372810  73.5049534  33.2536268  28.8778472
  74.3655062  32.8541708  28.7509012  73.5795546  34.1172767  28.4719205
   5.0831962   4.2204469  41.3752031   5.0083029   4.4697350  40.4540730
   6.0200053   4.0764743  41.5089607  25.2065778   8.4431165  22.9895306
  24.4072509   8.7949401  23.3813548  25.9090972   8.9812529  23.3543682
  51.3412046  96.5939522  77.1711063  51.8973494  95.9365749  76.7530251
  50.4961252  96.1580181  77.2807693  18.9753604  37.5816512   9.2515427
  19.7386384  37.6779461   8.6820114  19.3435693  37.4457765  10.1245785
  27.4755120  26.8951821  21.2256503  28.0010462  26.1446404  21.5026546
  27.5507879  27.5196481  21.9471812  10.6022847  82.3518181  87.4005795
  10.8546722  83.2234764  87.7051353  10.3860795  81.8720341  88.2001400
  33.8560987  21.0808325  66.3978672  33.2997465  20.6096601  67.0181084
  34.3715477  20.3966069  65.9708071   0.7608776  29.5570040  45.6007862
   0.0189028  28.9679909  45.4637861   0.7155140  29.7875500  46.5287018
  78.6747026  23.0202842   6.7094958  78.3121443  22.1425033   6.5899736
  77.9114151  23.5746479   6.8716955  10.0436473  38.6439538  50.7817507
  10.9552288  38.4511757  51.0010386   9.5415872  38.2990408  51.5201283
  90.8291721   1.0241263  45.2843237  90.4701805   0.4697654  45.9771776
  90.0598907   1.3816857  44.8409367  50.8491516  63.9482355  86.1718559
  51.0227394  64.1051388  87.1000195  50.0770760  64.4802618  85.9793091
 104.2099190  42.3031425   4.1917121 103.9376640  41.7433405   3.4645733
 103.4224319  42.7959442   4.4224599 104.6477985  30.5281639  50.3966427
 103.8889980  30.9145427  50.8338594 104.3214035  30.2688313  49.5349932
  89.4975948  23.2455301  42.6226568  90.2278137  22.8031969  42.1898127
  88.7538242  23.1106186  42.0354319 109.5779896  36.1428452  14.3388736
 109.2236042  37.0230365  14.2127645 110.2272320  36.0440040  13.6424875
  21.3949728  22.4420261  46.0998344  21.3091636  22.5259137  45.1501894
  22.3387861  22.3929763  46.2516403  84.7165680  31.5530372  28.7113357
  84.0091038  30.9636283  28.4499574  84.3172741  32.4229693  28.7075162
   7.6850760  57.9780531  12.4802101   7.6327783  58.0063772  11.5248597
   6.8444419  58.3269835  12.7765477  94.4906235  12.1331811  39.1794634
  94.3299580  12.4089825  40.0818777  93.6174202  12.0002770  38.8105631
   8.5495156  41.1659431  34.7269988   9.4448853  41.4625502  34.5639920
   8.0215007  41.9631672  34.6837521  22.1122885 102.2021294  12.4655616
  22.1956587 101.2514400  12.3915899  22.5349617 102.4156189  13.2974279
   5.1871926  34.1638327  49.7100782   5.7732022  34.8308945  50.0676394
   5.7682848  33.5516262  49.2586708  71.3842440  87.1329212  19.1575778
  72.1841955  86.6254616  19.2946863  70.8128548  86.5491486  18.6586177
  83.2462788  56.4766788  83.8650036  83.1217861  57.2656441  84.3925095
  84.1959572  56.3938236  83.7784386  98.9867878  78.5598373  84.7206116
  99.8208904  78.4581375  85.1790428  99.2192173  78.9738464  83.8894558
  76.2803698  47.0348120  15.9463084  77.2157621  47.0510817  16.1488140
  76.0512972  47.9523802  15.7985699  29.1341686  50.1461220  59.4349766
  29.7730350  49.6876478  59.9807596  29.5485830  50.1983643  58.5737181
  64.6949148   1.0911617  20.9921384  64.1996193   0.9271179  20.1896405
  65.5597305   0.7186528  20.8202100 104.2485523  16.3722396   2.8773421
 104.5929241  16.8278968   2.1092156 103.3704281  16.7340076   2.9967290
  39.5790219  26.3602185   4.2446977  39.4441199  25.4717803   4.5744109
  38.6996508  26.7358398   4.2017120  35.1074576  41.3193989  88.6853313
  35.0777936  42.0891714  88.1171703  34.4902825  40.7047892  88.2883644
  48.4304428  98.3477783  18.0846882  47.7958918  97.7375793  18.4604967
  48.7203312  98.8788509  18.8264143  87.8752422  87.1028996  21.6044164
  88.8300323  87.0499611  21.6468573  87.5759888  86.2244701  21.8390465
   9.6966666  60.4995155  82.6331615  10.0926948  59.6392822  82.7724171
   9.0567762  60.3584814  81.9353867  32.1892810  24.7090507  85.7045650
  31.6910839  23.8928962  85.7484245  31.5228748  25.3934765  85.6437778
  26.4410591  45.8788919  63.9206982  27.3541784  45.6074381  63.8271093
  26.0261846  45.1623249  64.4009495  36.3883233  47.7783632  88.9673710
  35.5925655  47.2709656  88.8075352  37.0939326  47.2332573  88.6192322
   6.5631175  64.9872541  63.5367918   5.8721542  65.4700089  63.9903831
   7.3601955  65.1951170  64.0243244 106.6085339  48.4072781  84.9940777
 106.2229252  48.4188128  85.8701038 107.2636414  47.7102995  85.0299168
  17.2970295  89.3020439   9.1077524  17.9712665  89.6450901   9.6942335
  16.4857018  89.3671703   9.6114767  12.8677666  17.7408063  65.5798864
  12.8675377  18.6096120  65.1781321  12.4532092  17.8711975  66.4327478
  28.4712386  45.4962921  71.1331272  29.1983891  46.1129665  71.2179708
  27.6958013  46.0507774  71.0466814  86.9332695  17.2819388   5.1667482
  86.7242527  17.4033689   6.0929227  87.8495598  17.5482380   5.0910842
  65.8276129 104.6319675  39.7694492  65.1066494 104.0046883  39.8239708
  66.5259886 104.2403698  40.2939987 101.1863232  21.0312223  11.6230440
 101.5483189  21.9170046  11.6471136 100.5489349  21.0134864  12.3369455
 110.0244236  70.4739809  87.1321297 110.2572632  70.8940887  87.9601002
 109.9087715  71.2001371  86.5193081  63.6579990  37.9908514  77.5728035
  62.9877710  37.4062324  77.2188997  63.2330751  38.8477635  77.6098013
   9.5878565   1.4439641   6.0333627   9.0741563   1.7935504   5.3052598
   9.7811317   2.2068869   6.5781790  56.9376945  10.9378970  21.1431241
  56.8438482  11.1791515  20.2215934  57.8827286  10.8648276  21.2765360
 109.9126720  48.2902098  87.0840454 109.9016476  49.1924095  87.4036503
 110.0560760  48.3718634  86.1411762  26.5820980  77.2801018  82.5142193
  25.8546305  76.8507576  82.0640182  26.9902492  77.8266573  81.8427181
  30.3012967  54.2102671  82.0213890  30.4931283  54.9853182  82.5493431
  31.0718226  53.6521673  82.1264839  54.2365217  71.9440985  18.0668437
  53.7712193  71.4238882  18.7219024  53.6646032  72.6947784  17.9067612
  72.5973129 102.0676041  24.2700148  73.3155251 102.5915241  24.6248555
  72.6433134 101.2412643  24.7509170  96.2821770  28.2782388  10.7534087
  95.8153152  29.1135740  10.7752645  96.9086266  28.3350253  11.4749205
  57.3120689 100.4543972  10.8310461  56.6816330  99.8053646  11.1433554
  58.1458330  99.9849796  10.8044815  16.9271481 101.3774109  39.5507026
  17.8567588 101.5715790  39.4308925  16.5262735 101.5969753  38.7096786
  78.9922285  85.3761005  59.2833757  79.6756077  84.7863960  58.9648104
  79.1218138  85.4029179  60.2313805  49.3647242 102.6108837  17.3353720
  48.6800766 102.9571629  17.9077160  50.1602459 103.0664253  17.6108062
  62.7385950  54.7485733  20.4245710  63.2691574  54.7399616  19.6279144
  63.3473635  54.5008278  21.1204576  73.8254690 100.1826477  19.2979825
  74.5407534 100.6211567  18.8372111  74.2390823  99.7962666  20.0699067
  53.0454683  94.2090225  23.8678813  53.8911819  93.7887001  24.0238500
  52.8399181  94.0025616  22.9560947 104.3838501  96.2315845  66.0129547
 104.7993660  96.0137558  65.1786137 104.8495007  95.6998634  66.6584587
  58.8819933  88.5271454  40.8557463  58.8777685  88.1911373  41.7520189
  58.3627272  89.3301201  40.8985376  56.8374825  30.0935841  28.5854936
  56.6306591  29.1603112  28.6350441  56.1044788  30.4760742  28.1031656
  67.6507092  12.5743055  24.6473765  66.7125654  12.7424347  24.7360110
  67.7183342  11.9834697  23.8973308  55.2967834   9.2446303  83.1950665
  55.4558134   8.3544606  82.8811550  56.0785103   9.7329158  82.9367733
  53.6803722  95.0912666  18.7158620  54.1372538  94.2993736  18.9993894
  54.3168211  95.7943821  18.8454843  42.1361208 106.0786152   7.4914420
  41.7773151 105.4374886   6.8778813  42.9109478 106.4256573   7.0493561
   6.3530755  13.7813950  24.7896862   7.1343809  13.6808801  24.2459130
   6.1898208  14.7244847  24.8024011 111.1624622  74.2208672  82.1762562
 111.1649227  74.8680449  82.8815079 112.0099258  73.7821531  82.2508144
  32.2977805  89.3154716   6.8419594  32.7869463  89.9332237   7.3854107
  32.6502538  89.4404030   5.9608305  22.0167732  52.1296787  30.9883499
  21.9300175  51.1937428  30.8074450  22.7420545  52.1871758  31.6103554
  -0.2300661  70.9773016  79.6412468   0.3932840  70.3399181  79.9896812
   0.2931673  71.5328979  79.0635252 104.6606159  11.3943529  23.7447667
 103.7377262  11.6233778  23.6349559 104.6545410  10.6673670  24.3674111
  71.7080021   1.4401822  24.9206281  71.6940928   0.5620313  25.3012705
  72.0827389   1.9926631  25.6066060  28.9060807  21.4496756  78.9348459
  28.1393456  21.2477851  79.4711208  28.9079690  22.4046421  78.8695526
  86.2213421  39.0415740   1.5245345  86.6928768  39.3222237   2.3088327
  86.9048309  38.9157462   0.8663224  58.2869053  20.9750915   5.3685528
  58.9170408  20.7616091   4.6803749  58.8139725  21.3751698   6.0601962
  81.4952946  24.7457027   7.6833230  80.7471561  24.2338014   7.9906964
  82.2579479  24.3012357   8.0535120  47.6972580  79.4678116  30.5188632
  47.0877457  78.7365532  30.4189229  47.9490614  79.4452763  31.4420748
  57.1865082  13.1793678  41.1771107  56.9504833  14.0750515  41.4185143
  57.2155619  12.7068424  42.0090437  30.8605242  81.6895485  88.2823849
  30.6356859  81.9146252  87.3795986  30.0400662  81.7886066  88.7653637
  83.5583115 103.0540848  48.0821466  84.0486526 102.4866581  47.4873114
  84.2057514 103.3438492  48.7248611  60.0016165  88.8708019  31.6680694
  60.8754683  88.9185524  32.0557928  59.4972610  88.3342171  32.2795701
  78.5124397  11.8709743  22.2373223  78.2135344  11.2244391  22.8767586
  78.5937595  11.3795590  21.4199305 104.8821640  34.1491413  23.9129782
 105.2409840  33.8948894  23.0627799 105.2619648  35.0107074  24.0852737
  73.2220888   7.8426468  47.3677921  73.4704685   7.2190100  48.0501556
  73.3835745   7.3768479  46.5473175  80.8422565 104.5246887  42.3820639
  81.7330360 104.3195534  42.0980310  80.7369614 104.0463543  43.2044601
   4.1270715  23.0969310  85.9311867   3.7126178  22.2800779  85.6533146
   3.4650993  23.5301733  86.4700031 105.2403450   5.0710863   5.1761717
 105.3889942   5.5622059   4.3681267 104.3939114   4.6439278   5.0445640
  83.5976887  24.7374439  12.4469256  84.4071293  24.8478127  11.9480693
  83.1227684  24.0477180  11.9832921  83.6201763   5.8017194  12.9918134
  82.7184200   6.1180156  12.9367995  84.1388702   6.5864748  13.1688643
  99.7777653 100.0414944  75.8375025  99.7526073  99.3102646  76.4546776
 100.7046700 100.1390934  75.6194401  13.5152483  41.2095833  76.6773081
  12.7734089  41.1244488  77.2761917  13.1923842  40.8634138  75.8453512
  13.3111441   9.9695224  23.2917166  13.4890068  10.7867062  22.8260922
  12.7850628  10.2335656  24.0465355  77.6021862  70.4066324  82.1823406
  77.1584940  71.2192154  82.4253941  77.7502346  70.4871655  81.2400913
  81.6328621  12.1119750  20.2014589  80.7944584  12.2043300  20.6539941
  82.2023201  11.6798925  20.8380532   4.7054207  72.3541784  89.1580391
   4.2508605  71.8170023  89.8069191   5.5121416  72.6265669  89.5953465
  24.0434361  26.2226391  44.8655462  23.3731103  26.8906188  45.0094128
  23.5503006  25.4306507  44.6515322  30.4787564   8.0711246  25.2700186
  30.4699039   8.4104210  26.1650229  29.6449256   7.6096541  25.1805568
  67.7012150 105.5175732  35.9669757  67.8874485 105.5223745  36.9058704
  67.6180737 106.4423979  35.7345557  82.5390434  42.6924038  11.2663007
  82.2245884  41.7883348  11.2627995  83.3213329  42.6717615  11.8175125
   5.6539720  72.5408888  56.8050575   5.7846075  73.1896973  57.4965811
   4.7556370  72.2350073  56.9302177 106.5701294  26.4628553  29.9274540
 107.0519066  26.5007401  30.7537055 107.2469330  26.5180612  29.2528224
  47.3209095  58.4018230  82.4375916  47.7225304  59.1473103  82.8838921
  47.5680208  58.5109186  81.5192986 103.0444241  96.1026764  74.3484020
 102.2407627  95.6297398  74.1323280 103.1961060  95.9072113  75.2730751
  75.5362511  94.7107697  90.4843998  75.0115967  95.4851913  90.2813339
  75.8540201  94.4070530  89.6340942  70.2844667   4.2525676   7.4605525
  71.1349583   4.1611850   7.8901440  70.4935217   4.3315890   6.5298092
  46.2902641 101.5781879   8.1978273  45.7257509 102.2809410   8.5198367
  45.7390070 100.7961750   8.2261240  84.8138428   9.2958140  33.4051323
  85.0505924   8.9075398  34.2474031  84.3814087   8.5875851  32.9280090
  39.6231103  68.9967251  84.6217823  38.7037206  68.9505100  84.8841190
  40.1107168  68.8069487  85.4233170  23.2422757  69.7133207  70.8686304
  23.3205509  68.8694096  70.4237604  22.6022625  70.1996088  70.3488827
 110.5770111  33.5488081  17.0576787 111.5310287  33.5325646  16.9814825
 110.3372574  32.6439357  17.2575736  15.1565707  89.0355015  67.1074390
  16.0114586  89.2647839  66.7429829  14.8409688  89.8463726  67.5063276
 100.1868057  18.3133614  28.1925368  99.2499065  18.3524871  28.3846712
 100.2566528  17.6940763  27.4660110  76.0468864  30.6857657  12.8545165
  76.6204309  30.6986117  12.0882821  75.7483721  31.5906692  12.9454470
  58.2660103  99.5412159  20.0028253  58.7167454  98.7779045  20.3639507
  57.6728535  99.8211384  20.6999922  14.2777586  68.7889385  66.9544744
  14.7895122  69.5978069  66.9458628  13.6648321  68.8855314  66.2256241
  30.3288603  85.3767872  44.9942207  30.2879739  85.5748081  44.0586185
  31.0174704  85.9503078  45.3305531 101.0518837  13.3099067   6.0545146
 101.9207001  13.4739113   6.4212435 100.9299946  12.3644435   6.1409611
  61.2747383  83.6848736  46.7484093  61.9665146  83.1426525  47.1274376
  61.6845751  84.1001225  45.9895754  17.0073473  57.3416710  82.1663857
  17.9307818  57.2375107  81.9369221  16.8805695  56.7627954  82.9180908
  88.8992882  65.6869984  90.3555298  87.9466438  65.7390070  90.2780724
  89.2234516  66.4030552  89.8092556   7.3367983  19.8494816  56.3848972
   7.2762746  19.1869271  55.6967211   6.4372313  20.1542664  56.5037155
  10.9429002  70.7397652  71.7586136  11.6839361  70.8835649  71.1700392
  11.3180161  70.8064842  72.6367188  79.2490339  18.7429190  26.5293264
  79.4275951  17.9548097  27.0423889  80.0987911  18.9879513  26.1631274
  88.9548111  17.5837207  12.6076460  89.7622681  18.0810952  12.7375078
  89.2351437  16.6684973  12.6044941 111.4588165  79.6232414  33.2339144
 111.9698620  79.1762972  33.9086795 112.0679474  79.7295380  32.5032306
  49.3069553  86.4676380  20.8640409  49.9385071  87.1213055  21.1642027
  49.7815752  85.9609318  20.2050972  29.8916054  69.1290522  84.8413467
  30.5764914  68.5132742  85.1020718  29.1748619  68.5740423  84.5339870
 103.2623196  78.0675936  46.1851263 103.7375259  78.4988737  45.4749107
 103.9276981  77.9032373  46.8533278  45.0288391   4.5371452   3.0896690
  45.3170681   5.2880168   2.5706813  45.7828140   3.9474836   3.0970258
  94.5488548  43.1197023  21.8090582  94.8639965  42.5773907  22.5321174
  93.6019993  42.9796600  21.7996407  24.5001650  67.5138474  89.9480915
  24.2571807  67.7117538  89.0436363  25.0538206  66.7357683  89.8825741
  61.9624376  99.2271805  17.7427542  62.9000521  99.0526295  17.6612675
  61.8115759  99.9905014  17.1852434  17.4695861  72.6541471  89.0151501
  18.1987095  72.8717518  89.5958900  16.6870284  72.8186893  89.5412350
  62.2157955  88.4687138  13.6904967  62.5893641  88.6478043  12.8275931
  62.1450090  87.5148487  13.7275636  48.0177975 105.1954651  32.7221203
  48.0297565 104.4552422  33.3288813  47.4003601 105.8145332  33.1116843
  80.0521660  23.8422894  14.6934545  80.8121109  23.5111308  14.2148674
  80.0457001  23.3411741  15.5089760  10.0366449   4.4587803  10.9020150
  10.7525539   4.4958958  11.5363097   9.2674899   4.7501451  11.3916457
  49.1540909 103.9419556  35.2791905  49.5674038 104.5921707  35.8471918
  49.0597725 103.1663132  35.8321071  81.4364529   3.5855392   5.4569221
  80.5558395   3.5891944   5.0817782  82.0130157   3.7740085   4.7164580
  33.3051538  83.4031391  90.7541084  34.0220237  83.4850597  91.3830853
  32.5116611  83.4701538  91.2852478  97.1031094  28.5037947  14.7187161
  97.6702690  28.7758994  15.4401827  97.5703812  28.7788177  13.9298856
  15.3074515  47.3224163  89.4491673  15.1585960  46.4238119  89.7434139
  15.5111992  47.8059435  90.2497387  84.2909241  89.3153000  41.0755396
  84.0162373  88.4788990  41.4513063  85.1424122  89.1315079  40.6787729
  82.3314190  13.6866605  23.8251305  81.3825512  13.8035381  23.7781119
  82.6663399  14.5465004  24.0795660  91.2249374  14.8747790  32.7973008
  91.6583252  14.5184529  33.5728264  91.2913704  14.1779721  32.1444011
  73.5958815  16.3513720   2.3626363  74.4514227  16.2038624   2.7657759
  73.3909130  17.2646272   2.5630993  82.7686787  34.9191952  14.4877863
  83.3740997  34.2402792  14.7857201  82.4258804  35.3049636  15.2939510
   3.7220982  45.7019186   9.1267145   3.9946112  46.3492489   8.4763867
   2.9805350  45.2525806   8.7212348 112.3563004  63.0451965  70.2430439
 111.9884014  63.2360888  69.3802357 112.3817921  63.8935661  70.6855965
  41.3795900  81.3087940  91.1875916  40.6364250  80.7064724  91.2214184
  41.1416054  81.9451809  90.5133533  48.1453800  91.7939472  54.1466427
  48.8974428  91.3242149  54.5071840  47.4831295  91.1165428  54.0096188
  86.5916279  28.7202756   0.2025589  86.5431121  27.8038995  -0.0697151
  86.8723777  28.6839120   1.1169418  18.0623746  28.4198642  46.6405773
  18.5616839  28.0335093  45.9210968  18.6035240  29.1491318  46.9431639
 111.4364624  32.1938419  32.5040793 111.7633343  31.2957215  32.5566769
 110.6165409  32.1220779  32.0153952  90.0575638  10.2471042  32.5549674
  89.4238472  10.4086494  33.2539201  89.5817852   9.7127670  31.9190836
   4.4853237  81.9402695  79.0632010   4.8956704  81.3386345  79.6843863
   3.6227298  81.5604782  78.8961029   5.8749348  24.5723200  29.8374653
   5.8514333  24.5172763  28.8821387   5.0205696  24.9308276  30.0778079
  98.1759930   1.0122862   9.5431250  97.4741173   1.6502647   9.6718878
  97.8120232   0.3769284   8.9266229  48.9013863  72.1469069  20.5873656
  49.2305088  71.2818766  20.8315611  48.9064312  72.6446629  21.4049530
  21.1485696  94.4865990  64.5435095  21.2375331  94.0010071  65.3635788
  20.6217504  93.9164543  63.9834881 111.4080840   7.3805809  20.9089899
 112.2720058   7.1325439  21.2381530 111.5750475   7.7190584  20.0293374
  50.0045729 100.0241756   4.2537040  49.3080378 100.6355572   4.0143928
  50.4126358 100.4162598   5.0257051  92.4936008  32.6066256  16.3213670
  92.4815941  32.5121140  17.2738147  92.6403713  33.5411525  16.1752439
  69.1439533  42.0557642  25.6000185  69.9551010  42.4559927  25.9132123
  68.9464426  41.3776684  26.2460876  44.6048069   2.9571739  38.6157060
  43.6706543   2.8895435  38.4181833  44.6405935   3.0836511  39.5638371
 109.2719173  11.6559875   9.4290137 108.8947582  10.7974887   9.6212703
 110.2162361  11.5019774   9.4013584  92.0467663  22.2190809  11.7532897
  92.4891758  22.3113012  12.5970900  91.4910221  22.9956937  11.6880929
  42.1455097  25.4394412  39.4490767  42.8053617  25.4178667  38.7559938
  42.4485016  26.1227036  40.0470543  35.6627703  86.7118549  90.6405735
  35.9793067  87.3348045  89.9863815  35.9889221  87.0527458  91.4734364
  83.7093449  97.2573471  14.8008919  84.5853043  97.1012688  15.1538122
  83.5714149  98.1982803  14.9097669  77.8220844  22.6445436  -0.2637214
  77.6512194  22.7347064   0.6737795  78.5504723  22.0257115  -0.3159986
 105.7859707  19.7081029   4.9507013 104.8879910  19.4231701   5.1200330
 106.3312435  19.0112567   5.3158277  78.9127064   6.2700415  31.0350299
  79.4715548   5.4948574  31.0899329  79.3951178   6.8735474  30.4699683
  99.0376759  15.6187022   6.9367683  98.3674335  15.3695321   6.3004285
  99.5434856  14.8183715   7.0776725   3.0619475  25.4380345  47.0228577
   2.4036130  24.7603512  47.1763945   3.1141749  25.5096626  46.0697699
 110.6486702  36.9040227  11.1146331 110.6908703  37.2587872  10.2266049
 111.5136719  37.0806932  11.4844847  33.0441546  39.1457987  88.1540871
  32.5969887  38.6636829  87.4584961  33.2846451  38.4754848  88.7936783
  99.1707897  18.9402878  19.5787430  99.5328522  19.5198309  20.2490211
  99.9126434  18.4033251  19.3002558  15.2716541  30.0688386  38.5158205
  15.9476912  30.5528975  38.9900494  14.8437715  29.5360899  39.1861391
  84.1183949  22.3347807  28.4711957  83.6892891  21.8237305  27.7849555
  83.7628460  21.9849133  29.2881489  80.8960724  94.1443348  25.8340788
  80.4397202  93.6706066  25.1386976  81.7131138  93.6609936  25.9568501
  86.0755444  56.9106770  83.5533142  86.8145657  56.4780045  83.9809513
  86.4793873  57.5459814  82.9621029  92.5907707  56.9828033   9.0234739
  93.1872368  57.6718807   9.3160957  92.1971703  56.6485357   9.8294389
  79.9559355  26.7000985  35.1846337  79.5706749  25.8859468  35.5086184
  79.7348261  26.7157674  34.2534542   5.0300634  25.1576352  84.1284466
   4.8489040  24.4620633  84.7605801   4.6146086  24.8599339  83.3191299
  36.5790391 102.4863148  25.9735608  36.7959738 102.6161003  26.8967772
  37.4068260 102.2304726  25.5666900   8.2952559  15.8305347  34.8859000
   8.9224923  16.5529966  34.9151540   8.5972464  15.2236521  35.5617166
  22.7659273  47.7368879  16.1879969  23.5607672  47.2988272  16.4922428
  22.7738357  47.6152039  15.2385950   2.8934816  12.9026616   1.0633235
   2.0967877  13.1405509   0.5890666   2.9664010  11.9551218   0.9489496
  31.6596699  74.9746752  86.7213821  32.3874450  74.4770670  86.3486004
  30.8790088  74.5975733  86.3156796   1.3200244  24.4124079  38.0846047
   0.5739212  24.7862315  38.5534501   0.9490262  24.0876460  37.2641635
   2.5963488  32.1180916  28.7085152   2.5966474  33.0521441  28.4992743
   1.7808165  31.9808769  29.1904998  94.6381855  33.8379955  23.3146191
  93.9767361  33.4161210  23.8630152  94.4457340  34.7730947  23.3838010
 104.4339275  24.9048042  15.3825188 103.8065529  25.1157951  14.6910524
 103.8910675  24.6899557  16.1410546  19.7419739 100.4299927  73.9012194
  19.6779120 100.0363731  74.7713852  20.6471562 100.7356930  73.8426781
  14.8982716  28.6359739  43.8036633  13.9478004  28.7415314  43.7624931
  15.0557971  28.2113957  44.6469641 105.7577896  12.7847087  41.4027023
 106.5461540  13.3189940  41.3064909 105.1271057  13.1775570  40.7992649
  76.7581272 102.7823162  23.5727406  76.0792542 102.5888824  24.2192316
  76.9857311 103.6984539  23.7312317  62.8277397  81.2212181  78.6824083
  62.5945187  80.6959629  77.9169321  62.1797132  80.9805298  79.3445015
  92.0418167   3.7946513  45.9217644  91.8727589   2.8592813  45.8089209
  91.4232826   4.0699148  46.5984297  94.0554333  46.8737078  18.8028383
  93.6231709  46.0198832  18.8219798  93.7162113  47.2962618  18.0137777
  18.6144531  57.0204544   2.2918987  18.3983350  57.6966095   2.9340354
  17.9862881  56.3186312   2.4624541  87.0137405  18.0584216  81.8858719
  87.6566505  18.1687903  82.5863743  86.6258240  18.9267981  81.7777920
  95.4445457  24.3971038  52.5020885  95.1076221  24.4309258  51.6067839
  95.5430222  25.3148079  52.7557659  10.8699965  24.4051957  24.4611955
  11.5105438  23.6967874  24.5251250  10.1373363  24.1154027  25.0047588
 109.8824396  20.8910005   0.5233845 110.0633159  21.0838954  -0.3965679
 110.6964770  20.5101125   0.8527836  68.8587141  20.7542562  33.4622908
  69.6540451  21.0679102  33.0318213  68.6615896  19.9251127  33.0265212
  93.2542419  23.7572622  17.0014703  94.2069721  23.7564683  16.9090545
  93.0620289  24.5553184  17.4938035  75.6701612  63.7640142  14.4259977
  75.3443241  62.8666067  14.3572617  76.5298700  63.7395191  14.0058339
  96.1321926  16.0711479  28.8283205  95.1870728  16.2127078  28.8825512
  96.4332485  16.1138916  29.7359395  11.9342923  45.9923124  24.0447426
  11.1751962  46.2562084  24.5647049  12.1718538  46.7777920  23.5519838
  59.3718624  63.2562923  88.2125759  58.5519981  63.3783245  87.7338600
  59.5408010  64.1063690  88.6188507  90.1174068   2.9519629  20.2599120
  90.4941845   3.8035929  20.0385571  90.7232094   2.3158897  19.8795950
  93.4458542  21.2313938   9.3650764  92.5580215  21.5488076   9.2000514
  93.7936115  21.8269420  10.0288677   1.9024514  31.3261080   9.3512648
   2.3941991  32.1440625   9.4245410   2.4665575  30.6700158   9.7606027
  47.5540638  50.9741354  30.2420807  46.5980721  50.9964180  30.2846980
  47.8107691  51.8907881  30.1416612  58.1947851  40.3749752  21.2119675
  58.3555317  41.0107565  20.5147076  58.2185459  39.5254183  20.7715988
 108.1988716  23.4749699  44.5815182 108.5433388  24.1848612  44.0396452
 108.9746666  22.9889369  44.8610497  72.4004459  23.3905077  22.4587607
  72.0479107  22.7800107  21.8112683  71.9657183  23.1494832  23.2767773
  89.6788120  32.0794415   6.6262448  90.5554962  32.1000099   6.2425339
  89.1059685  32.4061537   5.9324503  96.7539120  37.3358870  32.3279476
  96.5675831  37.0835829  33.2323027  96.2742424  36.6992497  31.7979980
  75.5265808  15.9486055  20.1468945  76.2429285  16.2755084  20.6911445
  75.3615332  15.0643146  20.4740357  65.9532833 103.0825615  88.3190250
  65.6117630 103.1644726  89.2094612  66.4377022 102.2570038  88.3232880
  81.6849709  55.0592041   9.8683178  82.3703098  54.9663401   9.2065609
  81.4237785  54.1607618  10.0703382   1.6565867  11.7703140   9.6011835
   1.9107397  12.5253975   9.0706295   1.9431278  11.9926631  10.4870093
  36.1912155  51.6102648  91.9674206  36.2977982  50.7250357  91.6192245
  36.9780636  52.0756197  91.6835976  18.5022533  64.9055862  37.9365945
  18.4772873  64.4131804  38.7570453  19.3033874  64.6099758  37.5041223
 102.6569462  47.8291893   8.2567227 102.8760433  48.0706549   7.3567683
 102.0125580  47.1271801   8.1662309  19.9625444  25.1528597  36.2255239
  19.1721928  24.8665333  35.7677102  19.6403325  25.7096529  36.9343209
  11.2845802  56.9229603  14.2499673  10.6033778  57.3525381  14.7673213
  11.0549617  55.9940672  14.2757857  69.9213362   8.4924936  28.4608245
  69.2265415   9.0094900  28.8685083  70.2918720   7.9802614  29.1795397
  45.2775621  85.0726986  91.8107700  45.2026415  85.8261776  92.3963356
  44.4089079  84.9874306  91.4178276  27.6143861  17.0172131  26.1356354
  28.3017516  17.6833558  26.1320472  26.8060780  17.5079143  26.2842464
  93.0682945  16.7285883  21.7718530  93.0671501  15.8232975  21.4609218
  93.1237698  16.6545427  22.7245712  69.4645452  60.2049494  86.3680649
  69.3352270  59.4699430  86.9674587  69.6363449  59.7952271  85.5202198
  82.9595089  61.7472696  37.8780651  82.3061085  61.1667490  37.4878001
  82.9037952  61.5732384  38.8176608 101.1889935  21.7436028  18.5386157
 100.5113506  22.1962023  19.0407920 101.7511082  21.3429284  19.2017293
  84.2309189  28.1404352   9.0723521  83.5075474  27.9155970   8.4871870
  84.6779060  28.8642049   8.6334932  34.9776673  75.1639509  85.9615898
  35.5212069  75.0803566  85.1781273  35.5153465  74.8018503  86.6658688
  77.3557329  43.4011602   8.2276368  76.7409086  43.4362316   8.9604378
  76.8001413  43.4098625   7.4482274 111.6144943  47.1713066  22.6339817
 112.0790291  47.9169321  22.2538662 112.0400047  47.0298576  23.4796572
 110.8783913  76.9046736  89.8579407 110.5574512  77.4759102  90.5557346
 111.8232632  77.0566702  89.8395252  86.8507957  47.6634693  18.2621467
  86.1354160  48.2618093  18.0466139  87.5324059  48.2270861  18.6281645
  23.1942081  26.0141397  13.4709644  23.0319238  25.2664399  14.0461528
  24.1268015  25.9581470  13.2627189  33.3408475  36.1228848  22.1645975
  33.1828284  37.0519304  22.3323274  32.8196406  35.9280777  21.3857365
  69.6942902   0.8561147  85.3555489  69.9097776   1.2885176  86.1818886
  69.6455812  -0.0737491  85.5773926  85.8766651   8.9726472   5.9229690
  86.3601208   9.1448009   6.7309737  85.8332634   9.8222464   5.4841876
  88.0890751  23.3154750  21.1263943  87.4579906  22.8042555  21.6329694
  88.3527660  22.7327538  20.4142594  81.3309956  44.1474104   5.6757587
  80.4164791  43.9777136   5.9017956  81.6847706  44.6065378   6.4375162
  91.3475418  11.2927425   9.2745519  92.2477341  11.4107370   9.5778280
  91.1307144  12.1181536   8.8410622  93.4431458  52.3059845  15.1994586
  93.0212688  51.4489222  15.1386452  93.1250858  52.7843666  14.4338071
   5.3374434  83.4548283  68.6529875   6.0320914  84.0022373  69.0190983
   5.6380695  82.5576782  68.7978029  93.1174564  57.0432138  28.2635379
  92.5839615  56.6876650  27.5527644  93.0853558  56.3724947  28.9456964
 110.9948921  39.0910316  48.4540844 111.0966110  39.1920161  47.5076771
 111.0213757  39.9852276  48.7945890   4.5221442   0.6016163   8.5365671
   5.3359663   0.1019341   8.4714299   4.7298381   1.4497991   8.1445456
  13.6136043  51.7890072   1.8971443  12.7512515  51.3945675   2.0275261
  13.4294105  52.6453733   1.5112132  91.7572021   4.9628928  13.2711339
  91.0314369   4.5241430  12.8272939  91.3442326   5.4413193  13.9900196
  32.1350941  91.0140426  91.9009298  32.9773411  90.8497007  92.3250112
  32.3095402  91.7316468  91.2919593  94.7438812  56.1374760   1.7595896
  94.2633247  56.4821243   2.5122634  95.6249905  56.4999723   1.8515699
  27.1568823 102.0616150  18.4563005  28.0460978 101.7831612  18.2372320
  27.2693634 102.9154110  18.8741577  92.1952438  84.1644669   0.6951809
  91.3277245  84.0454483   1.0818011  92.2780800  83.4468746   0.0671395
  29.6795392  36.8405771  49.2016840  28.7319636  36.9382334  49.1078901
  30.0456643  37.5810432  48.7180614   6.8813753  13.3266830  44.2279625
   7.3202336  14.0903866  44.6026516   7.4342775  12.5862765  44.4776249
  72.4685287  10.8771169   5.0936246  73.3941889  10.9484184   4.8606011
  72.4642229  10.8440220   6.0502428  94.0501118  12.5576794  31.8089914
  93.1703281  12.5427556  31.4321756  93.9275837  12.9126954  32.6894355
  20.7220149  23.2855296  15.2004290  21.5517998  23.7590003  15.1411581
  20.0868702  23.8611126  14.7743678 106.7028999  16.1854744  33.8789845
 106.5568829  16.9683182  34.4100833 106.3063908  15.4758120  34.3843460
  78.6999607  21.1872196  30.0212240  79.3589067  21.1650634  30.7151532
  78.1482744  20.4234958  30.1903343  35.7025266  96.6744518  84.0683651
  36.2109804  96.9555473  84.8290825  34.7991443  96.9042873  84.2858791
  88.6986256  58.8636971  64.7643423  88.4981537  58.1999493  64.1044378
  88.3263206  59.6720076  64.4118452  68.1532383  46.5875959  83.7963104
  68.5049915  45.7120562  83.6352921  67.5906849  46.4823294  84.5635700
  26.6942930 103.8235855  71.1337233  25.8621883 104.2856598  71.0321331
  26.5838099 103.0175781  70.6293631  99.7052956  36.9296551  31.8907571
  98.7849712  37.1248126  32.0672083  99.6878910  36.3832331  31.1050415
 110.9872246  19.7878313   6.3221884 110.0888348  19.5782411   6.5775156
 110.9880733  20.7381105   6.2073028  82.3197460  15.8668566  17.3275328
  81.6319466  16.4350736  17.6743627  81.9181728  14.9986684  17.2925317
  96.2238407  32.1325302   6.9819194  95.6251144  31.4019990   7.1370941
  96.3039970  32.1782875   6.0291797   7.4308622  61.2839794  14.4492114
   7.3090458  60.8519125  13.6038041   7.0565236  62.1566153  14.3283522
   4.8708469  39.3679643  21.1999774   4.9211580  39.0106869  20.3133798
   5.0991940  40.2920437  21.0991383 101.6692829  39.0366554  47.1612406
 102.0111847  39.5423436  47.8985405 101.0902214  38.3889771  47.5630331
 110.1421165  42.7430153  19.5760643 110.9145927  43.1051207  19.1420281
 110.4949093  42.2210264  20.2966833 100.0420284  20.2751756  16.1121464
 100.8840179  19.8701560  15.9042299 100.2271748  20.8416009  16.8612194
  45.4216242  28.1374359  20.7760668  45.0345707  28.5636878  20.0113916
  45.1999950  28.7123895  21.5085578  84.7130680  20.6652379  52.8035069
  85.2446270  20.5933881  52.0107126  85.2594376  21.1600137  53.4141731
  44.4420242  79.7722006  83.5907459  44.1710138  80.4332447  82.9537201
  44.6113110  80.2672386  84.3923187  15.0669503  65.3409672  45.0623417
  14.8672867  65.6394577  45.9496212  14.3015754  65.5944920  44.5464373
  32.0818067  87.9678154  56.4754200  32.6180029  87.5880909  57.1715021
  31.4237452  87.2984886  56.2878370   5.2586043  80.1958561  58.3380747
   5.1465148  79.2679787  58.1313944   6.1450446  80.4019260  58.0414391
  15.5187225   2.2079985   6.5144098  15.7077909   2.9265118   5.9109002
  15.8583689   1.4292255   6.0735184  98.8350773  12.1148586  19.1440511
  99.6492004  12.1727455  18.6439610  98.6830711  11.1753500  19.2462826
  68.7410545 105.6176281  51.4837217  68.9609528 105.9910107  52.3372173
  69.0266752 106.2781429  50.8525562 103.6331081  29.9459386   1.6609666
 104.1929531  29.2287445   1.9583535 102.7444744  29.6592999   1.8716721
  69.7925282  34.0520072  23.0497456  70.0266695  34.6179152  23.7853813
  69.3263006  34.6277261  22.4436021 106.2763596  19.3873465  16.2289214
 106.6978550  18.5866320  16.5410531 105.6471252  19.0868235  15.5731857
 107.5523853  59.5147705  13.4749138 107.2772217  59.3382406  14.3745542
 108.1134129  58.7736940  13.2462597  18.7776053  47.5984287   6.3537908
  18.8104439  48.5509825   6.2655032  18.5159576  47.4510050   7.2626579
  88.4418869  45.2332783   2.5200886  88.6095047  45.7124758   3.3315730
  87.5589466  45.4989576   2.2630578  14.5580411  86.3921165  90.7312775
  15.0740957  86.2443447  91.5237904  13.8598943  85.7387161  90.7747650
  77.7113867  10.7393682   3.4855399  78.2213259  11.4066827   3.0263168
  77.9463530   9.9185061   3.0528638   0.2979360 100.9764385  81.5395355
   1.1186944 101.3952827  81.2803936   0.5363911 100.0643444  81.7052650
  54.1415787  38.5984516  76.9014788  54.2332840  38.5498524  75.9499216
  54.0836716  39.5353174  77.0889807  11.7812252  58.8228369  33.7837982
  12.1221471  57.9298878  33.7323523  12.4316442  59.2981195  34.3007994
 100.1893425  45.6378031  13.4108150 100.6565666  44.8833847  13.0519414
  99.5037174  45.8224297  12.7688992  93.9033794  55.8099508  18.2261801
  94.1183949  55.3717470  17.4027848  93.4357548  55.1476240  18.7349844
  86.9944954  62.6254702  25.2128124  86.4416695  63.3896351  25.3761196
  86.5895271  62.1931648  24.4609213   2.6001722   8.5750091  20.0657225
   2.8923520   8.8617617  20.9309578   3.3127719   8.8246155  19.4773936
  65.0870180  11.9890642  88.0342960  65.1202106  11.6593111  88.9322853
  64.3542290  11.5209234  87.6341724  27.8416085  51.2168455  90.5739117
  27.2318554  51.9545078  90.5569077  27.3340154  50.4787016  90.2366829
  65.5692387 105.5158138  90.8679771  65.3038025 106.3862705  91.1647606
  65.1225185 104.9134159  91.4627743  17.4829578   6.6552180  38.8304496
  16.9229913   7.2212160  39.3617845  17.3949528   6.9980007  37.9410768
 103.3050632  36.0083628  20.0357699 103.4472179  35.1218033  19.7040498
 104.1148186  36.4745569  19.8279274 110.6182671  25.2067709  32.4974275
 111.1075974  24.5804453  33.0308151 110.3348064  24.7021127  31.7350626
  60.5629444  84.2489052  88.4827614  60.7586527  83.9116669  89.3569469
  59.6178341  84.1314888  88.3868027  71.9608498  92.7421570  11.3059080
  72.2883081  92.8163338  10.4095268  71.3711119  93.4891510  11.4080453
 112.4561501  62.7389622  27.9778862 112.1234608  63.0330563  28.8258624
 111.7219639  62.8631735  27.3764086  95.2028751  48.6969805   9.3703103
  94.8418713  47.8726053   9.0442508  95.4968452  49.1572666   8.5842139
  28.6625934  56.1474085  86.9425869  29.1265774  55.3108883  86.9770336
  27.8163218  55.9689665  87.3527241   3.2706085  54.6945286  34.7813201
   2.5689209  54.0435743  34.7701621   2.8160602  55.5368614  34.7716165
 107.3340702  54.2566204  15.1627505 108.1842709  54.5587301  15.4823077
 106.9268131  53.8403320  15.9224069 103.6470222  66.6577959  23.2894254
 103.0634880  66.6961241  24.0472221 104.0172863  65.7755327  23.3166289
  68.2507849  78.4837198  87.1603298  68.1631231  78.6792946  86.2274361
  68.6271095  79.2789555  87.5374317   5.3353053  96.3887691  16.6809797
   4.9480683  95.5192375  16.5800238   6.2170315  96.3018227  16.3187218
  24.4507241   0.8393805  27.3164630  23.7851000   0.1795986  27.1218753
  23.9593101   1.5745603  27.6828718  15.2287138  74.6385908  88.0896950
  14.6937454  73.9008808  88.3826447  14.6077383  75.3602171  87.9903221
   1.3011868  27.8876567   5.6292689   1.0839541  28.6459351   5.0870001
   0.4538189  27.5503111   5.9197831  18.4983003  57.3675966  13.1422019
  17.6262987  57.6904964  12.9150879  18.7247550  57.8347683  13.9463818
   3.4393415  36.3931632   0.9881181   4.2672119  36.7482710   1.3117859
   3.2723805  36.8750834   0.1781128 105.1706791  73.6866760  30.6999540
 104.5876789  74.0177202  30.0167656 106.0068321  74.1215467  30.5327153
   2.9554939  62.5923777   6.4637059   2.8597021  62.8610229   7.3774260
   3.0419487  61.6398525   6.5019166  57.0370150  45.0010204   7.3308969
  57.0850849  44.0910053   7.0379883  56.1743259  45.0760937   7.7387720
  75.4342937  21.6519880  84.0868092  74.6382904  21.4825416  84.5906925
  76.1356926  21.6469646  84.7381496 102.2002983  39.5897102   5.6092554
 102.8214931  38.9069867   5.3558075 101.7498112  39.8175335   4.7959960
  75.9564209  27.9558229  26.0674691  76.5097666  27.4305558  26.6455102
  75.8660793  27.4257016  25.2756095 104.8964405  20.5160594  23.4048104
 104.1657257  20.2183127  23.9466858 105.6372261  19.9787223  23.6854148
   2.0810866  40.2507496  11.5642643   2.1228376  41.0461760  12.0950997
   1.6189574  40.5171871  10.7694829 110.5338383  10.7778859   1.8431801
 110.9701157  10.4587615   1.0532089 109.8798180  11.3983929   1.5215319
 106.1385059  18.4225810  24.3345189 107.0643616  18.2243407  24.1940761
 105.8778572  17.8504193  25.0562716  28.7928367  35.0378871  30.2869320
  27.9548240  35.4840827  30.1649714  28.9801550  35.1311898  31.2209749
  24.6760225  74.8669720  78.6365032  25.2079940  74.8553658  77.8408241
  24.3613052  75.7686424  78.7010717   3.6747384  17.0794725  27.1066380
   3.4318808  16.3240457  26.5713024   3.3581322  16.8632138  27.9836941
  44.6661568  96.0859966  88.6687565  45.1119566  96.3284683  89.4803619
  45.3410912  95.6551933  88.1442451   4.9231851  43.9901781   2.6041564
   4.4055596  44.6106195   3.1173339   4.9967104  44.3963337   1.7405228
  88.9669774  32.5480129  91.0832484  88.7937866  31.6127350  91.1904779
  88.4971307  32.9630711  91.8065746 108.0313015  13.5749662  45.2724171
 108.0006409  14.4856513  45.5655813 107.1255970  13.3664405  45.0434256
  69.9266481   1.7846292  87.8634548  70.3625345   2.1481390  88.6342335
  69.3896914   1.0703464  88.2065392   6.9036955  75.2230453  48.2968521
   7.6055050  75.7133341  48.7250042   7.3243725  74.4187975  47.9927969
   2.8430876  46.9665289  29.9939942   2.2228330  47.2694159  30.6571484
   3.1689429  46.1330795  30.3337288  62.2785378  68.7961626  86.5650654
  61.9736147  69.6821165  86.3692665  62.7093744  68.8738012  87.4162960
  95.9400272  38.8261437   9.4842499  96.1109543  39.7447109   9.2762899
  96.1792374  38.3517814   8.6880130  11.4910221  50.6722355  36.9870901
  11.9880521  51.2710238  36.4297342  10.7190990  51.1739635  37.2490764
  30.4519725  80.0125504  85.5229473  30.0539041  79.4999886  84.8193455
  29.8173738  80.7063103  85.7024288 109.5921040  12.1364427  71.0251665
 109.5750809  11.6936266  71.8736076 108.9339638  12.8271914  71.1022615
 109.2946815  60.5566168  33.4036636 108.8194370  61.0653925  34.0605617
 109.2111397  61.0675049  32.5985265  75.3652096 100.1876545  73.4495544
  74.8013783 100.0996208  74.2180443  74.9787188  99.5999718  72.8003407
 111.8592245  38.8799334  15.5014348 111.5793500  38.6701226  16.3924348
 111.3143984  39.6251917  15.2484822 103.0443382  72.9707670  26.9846702
 103.8621044  72.4736500  26.9657993 103.1657696  73.6566353  26.3281107
  69.5144987  29.6277237  30.1709914  69.5036840  29.8684359  29.2446160
  69.4437933  30.4614282  30.6359315 105.3283787  13.5042703  44.1911983
 105.0450706  14.3963516  43.9908028 105.6589603  13.1653774  43.3592701
 107.5439835  47.0481205  88.7759399 107.6014137  46.2213135  88.2970619
 108.4151649  47.4353838  88.6905289  32.3738408  58.2965374  43.1596708
  33.2513070  57.9821873  43.3775520  31.9731975  57.5732470  42.6774168
  97.7097130   6.7980486  56.6791534  97.3287010   7.2468388  55.9244013
  97.0065212   6.7820674  57.3283863  30.1714063  32.1327186  90.0726891
  29.6615887  32.4331355  89.3203068  30.9467626  31.7234254  89.6885872
  -0.1711482  50.0913286  78.3689260   0.5512499  49.5320129  78.6544657
   0.2558974  50.8429623  77.9579353  76.3606977  53.2192850  21.6933012
  75.8155346  53.1962585  20.9068513  77.0743799  52.6089287  21.5079641
  72.2501040  69.1404724   4.2088559  72.7871370  69.6741962   4.7944897
  72.2446775  68.2728338   4.6130857  91.5742016  42.2319365  21.3093925
  91.2531948  41.5487146  21.8979478  90.8030701  42.7663326  21.1196184
  80.2145195 104.9278736  49.3876028  81.0124969 105.2527809  48.9705944
  80.2572632 105.2655315  50.2822495  46.7050362  79.2046118   6.9558853
  46.8702602  78.6198807   7.6954949  46.6529274  78.6228085   6.1975831
  34.6519542  45.0547266  89.3114948  33.8860130  44.8452377  89.8459911
  35.3491712  45.2195311  89.9462891  57.6218891  93.6058044   5.0854921
  57.1076727  94.3075275   4.6862429  58.5302067  93.8947296   4.9976644
  84.1212463  67.6742125   8.7287992  83.5027504  67.7852774   8.0067503
  84.2581844  68.5598087   9.0652424 100.8521652  59.0562391  83.1660366
 101.6106224  58.4948874  83.0052567 101.1813545  59.7435331  83.7452507
  48.9599943   7.3996335  21.8224072  48.9210129   7.7831638  22.6985455
  48.8492155   6.4599490  21.9671559  84.8576164  72.2425604  87.3117256
  84.9343300  72.7567911  86.5080452  84.5011044  71.4017773  87.0249939
  55.5812311 101.1052608  18.7328029  54.6470547 101.0949993  18.5243797
  56.0120630 101.2682343  17.8937221 109.1631508  40.7045794  81.4750862
 108.4313965  40.6055307  82.0841503 109.0233421  41.5604401  81.0698891
   3.6251944  48.7296152  76.7821693   3.8019028  48.0869961  77.4692249
   2.8396973  48.4020138  76.3440990  66.9442654  64.4652510   9.9639642
  66.1767101  64.8916912  10.3450727  66.6627407  63.5646248   9.8031718
  58.8130903  64.0702534   1.1534609  58.4045362  64.8949671   0.8904672
  59.0853977  63.6646652   0.3303087  22.4310040  87.1041203  32.0558667
  21.6703629  87.4772072  32.5013566  22.2185445  87.1682835  31.1247492
  90.0982380  26.8757057  13.2117212  89.4456291  27.2765994  12.6375973
  89.5858479  26.4770913  13.9151382   6.9753760  30.7886362  77.7638769
   6.3190734  30.3410983  78.2979250   6.6665035  30.6804633  76.8643618
  72.3877954 105.4214573  32.0851612  72.5449944 104.4949436  32.2670937
  71.7928839 105.7043362  32.7796340  93.4734249   1.8013723   3.8944626
  93.2021236   0.9920322   3.4613383  94.2963791   1.5764929   4.3285063
  52.7808905 102.9233456  27.0338392  52.5589418 102.4660206  27.8449011
  51.9392157 103.0642605  26.6002989  87.5137520   7.9681277  44.7563171
  88.2633305   8.1958652  44.2063284  86.7853642   7.8757554  44.1421890
 101.4047718  39.3670535  85.9392834 101.7530155  39.4635248  86.8256569
 100.4610062  39.2653465  86.0624886  34.9390125  43.9491415  69.9591970
  34.7660899  43.1295156  70.4223871  35.2914953  43.6758661  69.1122580
  21.4839816  30.7219338  80.3341103  21.2512994  30.3015780  81.1619949
  20.6672359  30.7367897  79.8351765  73.8761187  89.3353367  29.1611671
  73.6137629  88.4254074  29.3005800  74.6558714  89.2778683  28.6089778
  97.7361393  50.7079697  83.3189678  97.9374027  49.9050856  82.8382397
  97.6539326  50.4272032  84.2303658  71.0485363 102.5107861   7.5767452
  70.8755875 102.1348381   6.7136204  70.1983070 102.5024128   8.0163717
  32.1802592  48.5229540  65.4609299  31.2642193  48.6616802  65.7014656
  32.6353216  48.4250212  66.2973261  10.9813595   8.8951206  83.9611721
  11.2286460   9.7794586  83.6909389  11.7200172   8.3478421  83.6945248
  66.8457508  96.6398907  16.8998992  66.7927074  96.0641003  16.1370826
  67.7267027  97.0119476  16.8583512  43.5608053  42.8896570  36.5683651
  43.3372974  43.4961939  37.2743297  44.5135832  42.8098154  36.6138625
  16.4468896  69.2904377  87.0403576  16.2336004  69.2829418  87.9734612
  15.6038535  69.1784525  86.6010666  70.5594635  94.4853306  27.5888896
  70.4369783  93.9598465  26.7982602  69.6714020  94.6590137  27.9010034
   7.6956785  38.9748144  90.1725101   8.5394776  39.1198349  90.6005383
   7.7608305  38.0923748  89.8074245  72.5340128 104.1732311  44.9473619
  73.2481766 103.7589359  45.4316759  71.9305944 104.4784164  45.6248379
   3.4832639 101.6088104  68.9760065   4.2909566 101.8215275  68.5084438
   3.2493502 102.4181175  69.4304609  69.7544432  31.7681527  35.9132338
  70.0052834  32.6821995  36.0467649  69.0229177  31.6301775  36.5149546
  49.8968887  34.0122509  16.2469637  50.4503250  33.2427359  16.3803363
  50.4378891  34.7486663  16.5320015  46.0307884  21.7586875  74.9016380
  46.5470123  22.3957777  74.4078159  45.4066086  22.2887683  75.3972673
  20.2844644  43.8818026  80.3852367  20.3238511  44.5799160  81.0389423
  21.0310769  43.3190727  80.5905056  96.8864918  10.9660184  24.0187359
  96.8619728  10.9622693  23.0618572  95.9935379  10.7434940  24.2820764
  61.3074160   7.5306588  35.0272036  60.5090570   7.0043802  34.9837613
  61.7323399   7.2546452  35.8392930  77.6274586  94.7411251  21.2471604
  77.4145937  95.5065918  20.7133293  77.1930313  94.0120792  20.8044505
  34.7144175  30.2781701  72.0795298  35.0592017  31.0069704  71.5635824
  34.9558544  29.4970131  71.5818024  70.8746052  87.3993492  33.8540173
  71.3579559  86.8824005  34.4985151  71.3668966  88.2173634  33.7852263
  75.7496929   1.1591962  15.4874718  76.0489035   1.3479817  16.3768911
  74.7965431   1.2335058  15.5345833  34.6617794  95.0347328  15.8442140
  35.1816177  95.7417107  15.4618800  33.8267350  95.0722218  15.3778183
  67.0709896  79.0550852  12.0313036  66.8728113  79.9145222  11.6593790
  67.9144621  79.1720104  12.4684668   2.6705834  38.1247091  81.8308449
   3.3354175  37.5084186  81.5235806   2.1714239  37.6330709  82.4830437
   3.8539654  14.9512386  86.5070438   4.1998899  14.0588343  86.5205574
   3.4165335  15.0513816  87.3525333  33.2782650  65.8013916  26.6737723
  33.2181549  66.4107704  25.9380555  33.7101889  66.3027573  27.3653698
  98.2058907  10.6950819  78.4385252  98.4952450  10.4996097  79.3297577
  97.3550129  10.2632225  78.3628130  41.2618303  16.0830414  70.7726145
  41.3154078  15.1274467  70.7584095  42.1732044  16.3735294  70.8078480
  94.8857307  21.0828614  39.4515300  94.4798851  21.7032504  38.8460207
  94.1969299  20.8807135  40.0847101 108.4401379  46.8062546  91.6893111
 107.9487429  46.4382603  92.4237121 108.1071220  46.3416721  90.9215232
  99.3808651  12.0337307  12.0413160  99.6763611  11.4701939  11.3262343
  99.3641853  11.4598930  12.8072548  14.8526502  70.9645319  81.7635727
  15.2393007  70.2898979  81.2053680  15.4750097  71.0650826  82.4838448
  48.1484318  60.5465889  20.9566426  47.5770187  60.3388119  21.6959310
  48.8561201  59.9045420  21.0130763  75.2785730  66.4069414  31.5602732
  74.8975420  65.8856869  30.8536363  75.6262398  67.1845675  31.1236215
  45.1665926  25.1881433  85.6487656  44.6670771  24.6617579  85.0245571
  44.9399471  26.0930610  85.4343128  36.5821385  42.5496626  80.8051205
  36.8926001  41.7281580  81.1858654  35.6594038  42.5960207  81.0554028
  85.2084827  95.8843136   4.4116691  85.8460999  95.1705551   4.3962717
  84.3583965  95.4454422   4.4428146  25.8664918 104.1903782  26.3778782
  25.3950977 103.6453247  25.7478476  25.2315497 104.8569107  26.6402078
  89.4963360  16.8453276  17.5494230  89.0560341  17.5081348  17.0173979
  90.2941608  17.2759211  17.8565121  55.4095459  98.3570099   8.5073936
  55.7265234  98.3375168   9.4103760  55.0535822  99.2387390   8.3974844
  22.6380682  68.2703304  76.9829226  22.7159834  69.1782856  77.2758102
  21.9219589  68.2841158  76.3479233  82.6930046  91.9464684  21.3051987
  82.7424431  91.1098385  21.7676353  82.4110985  91.7147160  20.4202962
  62.8999472  71.9270706  48.5531425  63.0511379  71.0524368  48.9114618
  62.8859711  72.5006628  49.3193197  16.7867589  57.5189734  87.9180431
  15.9127760  57.1436930  87.8105640  16.6275012  58.4260464  88.1789684
   0.8270234  66.5079832  90.7719135   0.6128278  67.3900270  90.4680157
   1.5609238  66.2363672  90.2206993  27.0132470  28.8986588  79.5885324
  27.5352049  28.7716365  78.7962866  26.5659142  28.0622721  79.7172976
  99.1551113  20.7231259  13.5915852  99.3481636  20.8512115  14.5203245
  98.5354042  19.9938118  13.5741317  56.1474228  71.1614513  24.2558098
  56.1046410  70.3029299  23.8346958  55.2387142  71.4611483  24.2815590
  68.6866474  86.8594837  56.2285042  69.2949963  87.1666431  56.9006634
  68.3255768  87.6602936  55.8482790  26.3735628  53.4021235  90.3594875
  26.4272094  54.2891836  90.7151222  25.5195045  53.3680725  89.9286079
  66.3947392  89.9170780  16.1332607  66.2651587  90.0634098  15.1962280
  66.9602537  89.1461754  16.1793411  37.2520804  99.0773582  27.3039460
  37.3145294  99.7357655  26.6119671  37.8576398  98.3872414  27.0332718
  33.1201816  85.7626438   7.2981405  33.0864429  85.3206444   6.4497709
  33.5651922  86.5909863   7.1191174  78.5614204  63.5044479  10.3898633
  78.2567453  63.0723047  11.1877704  78.8299513  62.7866840   9.8163342
  16.4860642  52.7276468  64.4748592  16.5625823  53.4687185  65.0758457
  16.2392008  53.1221247  63.6383915  27.6697254  54.8357439  84.5490170
  28.2561946  54.0796518  84.5243549  28.0593491  55.4199553  85.1994991
  21.2660779  95.4796551  -0.2173344  21.9510927  94.8132132  -0.1640716
  20.9260454  95.5454729   0.6750092  57.1164608  13.2878852  38.3788776
  57.0592785  13.0352712  39.3003702  56.4906359  12.7159810  37.9344678
  46.1750031  87.6262283  16.4215505  46.1854649  86.7825699  15.9694815
  45.2796459  87.7113247  16.7491627 105.7018375  48.5704327  87.5314426
 105.4465485  48.9081335  88.3899403 106.2853241  47.8371048  87.7263737
   3.2236344  32.3478460  75.2135181   2.5770009  31.7911029  74.7797775
   3.7653294  32.6859999  74.5004606  14.1168833  31.4508986  67.6215601
  13.8413703  31.2191558  68.5084772  15.0009394  31.0922122  67.5439739
  60.0031567  71.2787819   7.4773085  60.6916618  71.0193014   8.0895674
  60.2994728  72.1181679   7.1253771  55.1889992  94.8866844  12.5152731
  55.2810621  94.0226078  12.1138644  54.2436790  95.0145912  12.5942743
  70.6159115  82.3638821  38.9169765  70.5294943  81.6937828  38.2389450
  71.4436245  82.1591473  39.3519545  35.5837417  70.2488184  90.6861019
  35.4711151  70.9348106  90.0281048  36.4879727  70.3486347  90.9838104
  41.2770557  51.7516422  86.8669701  41.1365891  52.2004986  87.7006531
  40.4088068  51.7144060  86.4657307  67.7168512   6.7983222  27.6980472
  68.2702684   7.5792718  27.7067542  67.8314400   6.4333326  26.8206167
   7.4244690   9.8872823  17.6958990   7.9413509   9.9340373  16.8916118
   7.6749337  10.6695485  18.1873846  13.8917708   1.7172350  64.1819715
  14.7342765   2.0617041  64.4782066  13.3781743   2.4950832  63.9642477
  55.8065987  83.0967808  32.5378394  55.2324104  82.4717236  32.0952916
  56.6857767  82.7351761  32.4259162  14.4012344  80.8922100  51.2597752
  14.1126025  81.6268158  51.8013287  14.0568042  81.0872841  50.3882551
  43.2018185  89.3227100  40.0356531  43.4135485  90.0520611  40.6182766
  42.4679375  89.6412373  39.5101142   6.6288829  65.5083513  76.0173130
   5.7922101  65.4800797  76.4814377   6.7498916  66.4321423  75.7977629
  39.8603439  95.0153923  12.6711357  38.9838719  95.1785660  13.0195677
  39.7507548  95.0508404  11.7208910  33.6144018  21.1085606  61.2181473
  32.8957272  21.3494492  60.6335831  33.2546496  21.2192392  62.0982361
   4.6996278  32.0356393  69.6048021   4.9537763  31.1154938  69.6752977
   3.7645936  32.0109582  69.4014931  33.3519721  26.5544558  70.7526493
  32.9223084  26.6639686  69.9043417  34.2844701  26.6602087  70.5642509
  21.6980505  60.9580135   6.5304238  21.0167170  61.6155577   6.3902313
  21.3156986  60.3475714   7.1608210   3.0604532  65.2616358  89.7942638
   4.0028927  65.4251099  89.7579956   2.8869101  64.6932268  89.0439129
  47.7837324  97.7363586  10.6906164  47.4259329  97.6813602   9.8045075
  47.8040409  98.6738110  10.8829653  25.4040384  41.5364933  18.9481390
  24.6694398  41.4557838  18.3397937  25.0712156  42.0917511  19.6532273
 110.2653885  50.4915953  88.5115719 109.4461632  50.9817457  88.5812473
 110.9160233  51.1470652  88.2600403  99.1223526  10.3603745  16.1873889
  98.9060020  10.2867126  17.1169043  98.8115597  11.2305057  15.9373617
  95.9260368  14.4366288  17.9983687  96.0675716  14.0476394  18.8614380
  96.7975426  14.7118592  17.7138627  95.0909424  30.7925367  55.1810169
  94.1424370  30.6645489  55.1944876  95.2665424  31.3613105  55.9306145
  49.2127132  94.0406227   9.9032253  49.7052860  93.2289505   9.7815728
  48.5183859  94.0002823   9.2455679 109.8016548  14.6719027  16.8566656
 110.7273960  14.6751583  16.6133082 109.8006153  14.4687212  17.7920520
  14.2933083  32.5335884  85.8361149  14.0802324  31.8616271  85.1885891
  14.8704243  32.0916343  86.4588928 105.9090042  53.3429098  53.8343811
 105.5857849  54.1537285  53.4415293 105.7367134  52.6715946  53.1741667
  17.6518166  28.5812283  76.8112135  18.0298901  28.2683921  75.9893703
  17.8723657  27.9031086  77.4497604  83.9031601  90.4332733  52.3650503
  83.2120800  89.7727013  52.3172665  84.6123600  90.0770855  51.8298864
  13.5903609  80.0391388  59.5831537  12.7803886  80.1997471  60.0672865
  13.7963903  80.8802319  59.1752911  47.6299000  44.3343735  89.4213009
  46.7339802  44.0087557  89.5080566  48.0955887  43.9558363  90.1669979
   4.9625444   1.8883508   3.6743850   5.7369113   2.1742778   4.1589814
   5.0053930   0.9323749   3.6968741  36.5119028  40.0028419  81.7837048
  35.7152033  39.5206571  81.5623379  36.7134619  39.7338343  82.6799393
  53.2355213  94.9071598   3.4256440  53.4048748  95.0484753   2.4942037
  52.7085543  95.6611252   3.6903584  37.0703673  53.8233280  79.9917698
  36.7446971  53.6694193  80.8786106  36.6117620  53.1786633  79.4529629
  18.3479726  46.2770176  59.8507261  18.2454491  46.4072180  60.7934713
  19.2864966  46.3826466  59.6950197  26.0121298  65.0987148  89.3319607
  26.5484643  64.3975163  89.7019577  26.3411164  65.2064133  88.4395409
  52.6854134  76.8091345  31.5993977  53.1997156  77.4662781  32.0683193
  52.4617147  77.2282934  30.7684350  80.0239563   0.9633999  25.6221509
  80.1532078   1.7313941  25.0656343  79.0771866   0.9218035  25.7568073
  38.9545679  88.9860344  38.3392262  39.2171240  88.0655479  38.3402610
  39.6758389  89.4403458  37.9037905   6.9392240  38.1092596  78.6493635
   6.0847932  38.2278109  79.0642405   6.7765117  38.2608342  77.7183485
  17.4800336  42.8204155  87.7466297  17.3033524  42.9491329  88.6785412
  16.9928062  43.5201216  87.3116016  81.7736340   3.9153287  11.7998672
  81.9663906   3.0326223  12.1159446  82.6330757   4.3161887  11.6698754
  84.5117855  99.3072796  10.0574279  84.7254944 100.0710201  10.5933857
  84.0133572  98.7363052  10.6420565  37.4110293  58.7464094  89.2965031
  36.8969321  57.9644918  89.4978428  37.8737617  58.9449978  90.1105499
  27.0710158  86.4344788  75.4157209  26.8125081  85.7700729  76.0544443
  27.6717305  85.9788704  74.8259783   1.6304274  31.5059423   0.3425066
   1.0966301  32.2665548   0.5722002   2.3907706  31.8740606  -0.1076034
  29.2745869  27.2972824  90.2113168  28.4006731  26.9068005  90.2169757
  29.2320435  27.9891827  90.8713934 105.1579285  30.3344679  69.7159433
 104.2114449  30.4024243  69.8416138 105.2869034  30.4880047  68.7799835
  91.5648460  29.3654537  90.9359932  91.3440609  28.6305594  90.3637886
  90.7243156  29.6513653  91.2937641  14.8843026  68.8295317  79.8440790
  13.9932930  68.7338257  79.5076656  14.9763823  68.1225729  80.4828072
  13.4056199  35.1911879  86.2074757  13.5530198  34.2478967  86.1388493
  12.4545240  35.2812886  86.2668991 104.8827277  23.4206774  91.0067460
 104.0703593  23.9244940  91.0562740 105.5203591  23.9462664  91.4898738
  13.7043822  60.4603672  62.8718758  13.5826659  59.9225855  63.6543131
  14.4950593  60.9690809  63.0515099  64.5381975  73.7601900  27.6194811
  65.0296688  74.5763874  27.7117395  65.0800228  73.1035757  28.0571032
  30.4140401  27.7885151  75.4727411  31.3568997  27.9505062  75.4410172
  30.3204966  26.8689752  75.2238894  22.7806830  72.1677065  29.9107528
  23.4463501  71.5506315  30.2146173  22.0431781  72.0371675  30.5068040
  25.7053304 101.8084717  83.6555099  26.5440369 101.3504028  83.7100983
  25.7642865 102.3208141  82.8491306 104.0015316  13.5960507  39.4284630
 103.2637882  12.9979992  39.5480537 104.3298435  13.3989739  38.5511923
 108.3631134  20.6325889   4.3842739 108.3959961  20.1050854   5.1823282
 107.4289703  20.7663965   4.2239338  50.9762907  43.8534117  82.5547409
  50.8030081  43.5361004  81.6684532  50.6945896  44.7681189  82.5410080
  28.9924073  24.4499469  79.6680403  29.0147877  24.9473882  78.8505554
  29.5040751  24.9760079  80.2826023  49.8650694  33.6744285  52.0548296
  49.0527821  34.1391444  51.8536806  50.5485249  34.3392920  51.9706726
   5.4136586  65.4852009  85.1661873   4.6798494  65.4527903  85.7799530
   5.8040196  64.6124840  85.2132797  96.0892677   2.9163629   9.3287456
  95.2477264   2.7721044   8.8960332  95.8649635   3.3592346  10.1471496
 105.1929283  25.1933599  38.3469772 104.6017361  24.7789383  37.7185082
 106.0630417  24.8803329  38.0996823  12.1650827  51.0659599  88.1512547
  11.9584036  50.1690865  87.8883266  12.0725644  51.0636091  89.1039658
  31.0738945 102.3839760   3.5292655  31.3416743 103.1575394   3.0331555
  31.7087078 102.3257923   4.2433086  73.4748077   3.0793387  10.9766304
  73.6014557   2.2921544  11.5062845  73.9905357   3.7523910  11.4207709
  57.3228598  88.9486694  23.6955667  57.6036644  88.9980412  24.6093178
  57.5776148  89.7918129  23.3208156   5.7043499  33.6175752  90.0468731
   5.6602597  33.1960893  89.1885948   5.6781065  32.8926134  90.6713581
  60.3814173 104.8028946  60.1824760  60.5474377 105.2083683  61.0335112
  59.5427465 104.3543243  60.2904129  61.8155956  89.1727638  34.3015862
  62.5030899  89.3956184  33.6739564  62.2660542  88.6740875  34.9832273
  45.4139471 105.6460285  13.6270547  44.5671272 105.9698105  13.9341092
  45.9103870 106.4366817  13.4157801  15.9007740  63.8315964   6.6770595
  16.0817409  64.2551470   7.5161588  15.8725119  62.8969526   6.8817103
  73.6941481   9.2887580  15.6854022  72.7717304   9.5169324  15.5700219
  74.1453743  10.1316476  15.7319200  29.6218491  52.1060324  64.9136400
  29.1828084  52.0623541  65.7630920  30.5543494  52.1377754  65.1273441
  68.4724712  27.2809720   4.2367074  69.1205645  27.0746756   3.5631740
  67.8188467  26.5857792   4.1610900  73.1946850  88.6693478  24.0783739
  73.9840460  89.2107010  24.0870237  73.5195541  87.7711487  24.1410398
  32.7748704  44.7586775  83.0790710  32.5859594  45.6398773  82.7565384
  33.2184362  44.8997402  83.9154816   0.9505156  35.2258658  70.6170464
   0.5233662  34.7717714  71.3433886   1.8787609  35.0135326  70.7145452
  38.3584976  16.9171107  66.3133287  38.8720274  16.4118266  66.9435740
  39.0012217  17.2300756  65.6767845  80.3141499  95.0148487  18.8430774
  80.3195572  95.8463764  18.3689880  81.1937428  94.6599483  18.7142110
  64.6685600  95.8304977  32.4688339  63.9296865  95.3173065  32.7958250
  64.5932293  95.7785892  31.5160155   7.3178250  14.2898715  81.4808464
   6.5592682  13.7718904  81.2115574   7.7376229  14.5448327  80.6592655
  22.8728294  47.5404453  77.3867321  23.4997678  47.4403858  76.6703701
  22.3236680  46.7581272  77.3354292 112.0395565  16.0526490  43.7803841
 111.4683914  16.3873219  44.4717503 112.5589943  15.3715515  44.2076111
 100.8431816  10.4510617   5.9910667 100.4434967   9.5906687   6.1183548
 101.7138767  10.2613449   5.6416041  57.9152346  68.9504766  85.7785511
  58.7444401  68.4966040  85.6280613  57.2875929  68.2499838  85.9563255
  82.1474838  82.7643490   2.9484850  82.1473312  81.8763351   2.5912011
  82.4793148  82.6635170   3.8406473   9.0920758  39.5405364  46.1028767
   9.7566259  39.6472168  45.4222727   9.3948036  38.7927914  46.6181087
  34.6976352  64.2929220  85.0218391  35.4620647  64.8369026  85.2114964
  35.0617003  63.4325695  84.8133183  86.7982960  13.1937492   8.6230832
  87.0950603  13.7001812   9.3791819  87.3848915  13.4563494   7.9137373
  40.3106928  92.5798416  10.2252114  39.5818639  93.0955219   9.8800862
  40.4350233  91.8811131   9.5829093  40.6748152  64.0917778  53.2697344
  40.9643936  63.1981802  53.0857182  41.2553596  64.6442556  52.7463102
  32.2329569  49.4428539  71.1995840  32.0734906  50.3738451  71.0444689
  32.9855895  49.4240046  71.7907047  23.4421611   0.5657570  73.1180716
  24.0211773   1.0789886  73.6816025  22.8431344   1.2096985  72.7402639
  97.6471043  55.2088642  89.2154789  97.2617245  55.9736347  89.6430779
  96.9659138  54.5382166  89.2648506  81.7148781 102.1449852   8.1604958
  81.0498333 102.7428341   7.8191364  81.2510872 101.3170624   8.2856536
   1.9945678  52.1179247  77.0832300   1.6625397  52.7429533  76.4387703
   2.8707436  51.8934917  76.7698956  66.8152618  98.6042976  28.0577612
  67.3662567  98.3619118  28.8019943  66.1028719  97.9650688  28.0689430
  57.4451971  97.5127506  18.1450641  56.6140270  97.5358868  18.6192548
  57.8967810  98.3127022  18.4140944  69.8989820  13.7518382  25.5864620
  69.1808414  13.3616793  25.0881863  69.8900509  13.2871842  26.4232707
 100.0903797  13.5715842  34.0162539  99.6748257  13.4566796  33.1616545
 100.3242970  14.4992840  34.0460443  39.6661258  94.0200138  18.6799943
  40.4451656  93.5169125  18.9171052  39.2388368  94.2079163  19.5156670
  73.3601952   2.2623967  16.3068283  72.4118042   2.1339297  16.3236427
  73.5348892   2.8532353  17.0393753  54.8971613  -0.0624305  76.0073185
  54.1641064   0.0604982  76.6104317  54.6055205   0.3420514  75.1902676
   7.1072328  67.6280928  90.8882427   7.9068273  67.3967314  90.4156399
   6.8727660  66.8325424  91.3661098   8.8991404  26.9930220  76.7881489
   9.8537219  27.0632052  76.7970991   8.6723059  26.9300199  75.8603477
  45.8410549  92.5800800   6.1635900  45.9690714  92.5268745   5.2164823
  45.9294176  91.6769981   6.4683312  60.7946682 102.6466846   2.0549563
  61.3778830 101.8944168   2.1559083  61.2244892 103.1967831   1.4000717
  74.2993402  93.5576534  16.7169738  74.6532249  93.4954548  17.6041758
  73.8177252  92.7397346  16.5933311  42.9420424  56.4081812  85.5058575
  43.6195326  56.6162491  84.8624706  42.1475697  56.2860727  84.9861145
  41.4754581  69.5923996   7.7141517  40.7490015  70.1332664   8.0239153
  42.1964598  69.7956419   8.3100414  21.0690904  42.5752354  87.9445934
  20.9576845  42.5206709  86.9954681  20.2163720  42.8641319  88.2696247
  72.6593447  74.6851254  24.3408704  72.1346569  74.1146994  23.7791324
  73.5426235  74.3190432  24.2957163  67.0434284  94.9564552   1.8397462
  67.2691584  94.9962234   2.7690983  67.8315973  94.6164513   1.4161658
  12.6216376  94.0262127  59.7592402  12.1010494  93.3764458  60.2314854
  13.5222173  93.8598633  60.0376558  79.5348215  97.8727245  42.5301552
  79.1308117  97.4360943  43.2800674  79.1030931  98.7260342  42.4886799
 105.1360607  10.8394301   9.5181578 105.0865459  11.7530107   9.7994918
 105.3446007  10.8870947   8.5851693  37.4211693  52.7652025  72.5969458
  37.7760458  52.5789499  73.4661961  38.0726695  52.4114704  71.9914293
  40.3922367  52.1288252  65.3775406  40.2652931  51.6901636  66.2187910
  41.3422632  52.2028542  65.2869749  88.5060310   0.5508440  25.4245329
  87.6035404   0.5190111  25.7419205  88.4236145   0.5885155  24.4716311
  13.6418809  -0.2052718  10.0780654  13.0880155   0.1987714  10.7460535
  14.3185033   0.4481382   9.9006563  99.9827194  29.8258591  46.4179754
 100.0479031  30.7580209  46.2104702  99.0884876  29.7142768  46.7406654
  41.3271379   7.9010648  18.3444083  40.9161997   8.7119764  18.6440468
  41.8719387   7.6224482  19.0804744  62.3636913  84.8793125  36.9399357
  62.3097706  84.8095226  37.8930664  61.6504431  85.4718494  36.7024350
  69.3942499 103.6483288   3.8534868  68.6016941 104.1413498   4.0656623
  69.1573572 103.1348801   3.0811653  48.9754581  78.8552761  26.8866014
  49.8412180  79.1229963  27.1948504  48.4936047  78.6382484  27.6846933
   2.8607804   9.6113575  13.9352477   3.0472019   9.8192525  14.8508120
   3.5592675  10.0442028  13.4443367  83.5477638   0.2013056  21.4699626
  83.0607986   0.0889295  20.6535912  84.3607712  -0.2849298  21.3327599
  70.5171394 102.7595901  22.7211571  71.2993240 102.5185585  23.2174659
  70.5287981 102.1800804  21.9594073  80.6788254  11.6363049  32.4471593
  80.2219105  12.4752891  32.5068736  81.2302303  11.6076910  33.2290602
  24.1618729  45.5698109  61.2443733  23.8261271  46.2502718  61.8278790
  24.8096085  45.1011467  61.7707062  21.3035631  30.3689122  61.9200802
  21.8880534  30.1767874  61.1868048  20.6701326  29.6512938  61.9158506
  42.3522043  45.0724411  82.6389027  42.2697496  44.4765377  81.8943691
  42.9745960  45.7377958  82.3453712 108.1836510  53.7480640  74.4894552
 107.5121117  53.0789137  74.6217442 108.8496876  53.5525703  75.1485491
  66.5583897  34.4717884  82.2527313  66.8007851  33.5489297  82.1765137
  65.7388353  34.5453405  81.7636967  69.5667696  92.7060127   6.9236553
  69.2468786  93.0025101   7.7757066  70.4471445  92.3744965   7.1004707
  12.4542487  47.9679394  52.6233625  12.9136920  48.3538246  53.3691740
  12.5220418  48.6274719  51.9329596  64.4392729 102.9051685   8.8940549
  63.6129856 103.3400249   8.6833757  64.2787981 101.9808865   8.7038636
  23.8247561  19.2777812  68.9133215  23.1537938  19.4470036  68.2519579
  23.3859038  18.7315154  69.5654202 111.7477504  56.2659454  85.4575253
 111.5171302  56.5434122  84.5709229 112.5564798  56.7388964  85.6537533
 106.4820099  97.5843048  20.2024269 106.2831879  97.8958035  19.3194413
 105.7174492  97.8328896  20.7219267  36.1885214  45.4259014  80.7986069
  36.3521433  44.5777416  81.2110138  36.1385942  46.0419607  81.5295029
  47.3708391  44.7321606  86.4033031  47.7016926  44.9064922  87.2844219
  48.1473017  44.7671795  85.8446312  69.8788500  79.5157099  63.2462168
  69.0757322  79.0210629  63.4091711  69.6026945  80.4321003  63.2599783
  66.3823462  85.6008911  23.1765342  65.7314920  85.3326511  22.5279427
  66.5643883  84.8051548  23.6764264  50.3640366  61.7631292  21.8542695
  49.6146727  61.2468481  21.5573835  51.0468292  61.1155128  22.0292544
  94.4096565   7.8681779  14.1521013  94.3518448   8.4997249  13.4351373
  94.7196960   7.0629990  13.7376142  31.4534879  83.9924335  30.8061433
  31.2271786  83.1214046  30.4800844  30.6285810  84.4775677  30.7858324
  85.0682926  97.3629093  67.4346304  85.9242249  97.6467896  67.7556133
  84.5220757  97.3150921  68.2192278  95.8264446  53.7046242  11.7634642
  95.1213455  53.2883930  12.2592723  95.9837723  53.1126928  11.0278738
  53.0152130  80.4630852  24.8475099  52.9667234  81.4022350  24.6689510
  53.5369635  80.3979778  25.6473637   0.5175573  17.9322612  41.9465303
   0.3039820  18.7468350  42.4015999   0.0031454  17.2634363  42.3985147
  13.0640376  42.4371910  82.4398327  13.6716807  42.0742989  83.0842781
  13.1592512  41.8698215  81.6748142  23.4924746  43.8828087  83.2970333
  22.9743886  44.6374035  83.5770416  24.3066263  43.9530039  83.7954998
  31.6892624  29.4155979  86.4498901  31.5675783  30.2580738  86.0120964
  30.8011174  29.1162753  86.6444111  40.4950380  36.0149026  63.9944124
  41.3439369  35.6520605  64.2473078  40.5596733  36.1378837  63.0473518
  70.5055380   2.1364075  16.0278976  70.2894974   2.4033538  16.9213724
  69.9327564   2.6670906  15.4742503  95.9134007  21.9403505  70.9279680
  96.7126369  21.4507961  70.7335472  95.2108002  21.2961245  70.8410501
  30.2445817  84.3006802   7.2694367  31.1963344  84.2641354   7.1742284
  29.9078608  83.9303112   6.4535463  42.5584698  88.4154701  45.6802988
  43.2326460  87.7870750  45.9388304  42.4851465  89.0090942  46.4276028
 101.5550709   1.8048045  35.0617957 102.1148682   2.1198472  35.7714510
 101.7888737   0.8817545  34.9640846  28.3403039  57.5688744  82.7407742
  28.1466269  58.0762863  81.9525814  27.7172256  56.8426180  82.7172089
 103.9607048  11.5275991   1.5730654 104.8089981  11.9264817   1.3793713
 104.0978432  10.5912793   1.4290817  18.2063591   8.7169683   0.9441936
  18.7959707   9.3786377   1.3058339  18.6389601   8.4231842   0.1424587
  15.0025809  14.7884274  20.9509587  15.5205894  15.4015696  20.4294658
  14.9566615  15.1909268  21.8182063  19.9448788  58.5028744  68.2196808
  20.3089166  57.6971006  67.8530264  19.9949551  58.3787394  69.1674757
  20.0171185  76.7020941  89.1922092  20.7026649  76.1296082  88.8479424
  19.1990101  76.2647009  88.9563751   9.4376260  16.3513076  15.9901404
  10.3237414  16.0763717  15.7546794   8.8706642  15.6744468  15.6204855
  25.9032917  33.1682920  32.5112557  26.5866375  33.8001370  32.7349615
  25.3533912  33.1232381  33.2934403  12.8908801  76.1033297  57.6468658
  12.1187818  76.1945438  58.2052326  13.5800898  75.8015394  58.2385969
 111.6499901  33.0421543  45.4926252 110.8457279  33.5343337  45.6574249
 111.5046883  32.1967220  45.9173203  32.8206253  57.8040791   7.1293747
  32.1955347  58.4172249   7.5160873  33.5073066  58.3612919   6.7630178
  15.6833780  27.5568581  68.5667181  15.5756676  27.8048205  69.4849443
  14.8011863  27.6102686  68.1991339  30.6348777  96.4721775  80.0506306
  30.8801460  96.3191509  80.9631348  30.2523780  97.3496342  80.0493431
  54.9084234  60.9523344  79.3421602  54.5059872  61.7108297  79.7651958
  54.7695923  61.0983181  78.4064007 109.1586208  83.6098957  82.9321098
 108.8283634  82.7226734  83.0734921 109.2052460  83.9906979  83.8090611
  91.6640759  18.3523512  37.5307274  92.0584774  17.5945222  37.0990181
  90.8105946  18.0397260  37.8308392  18.7801301  78.1644964  57.1343327
  19.1562617  78.5422087  57.9293728  18.7377858  78.8960266  56.5184593
  24.2087555  72.9252195  65.4908228  23.8480449  73.3922386  66.2444878
  24.3833447  72.0424747  65.8171940 106.4481449  37.4086118  10.4221892
 106.0662651  36.7102981  10.9539390 106.0882187  38.2150006  10.7915413
   8.0024976  74.7388935  63.2579517   8.8982630  74.5552349  63.5409832
   8.0879915  75.4800606  62.6582909 102.4225846  13.3640020   0.2155956
 103.1508794  12.9511277   0.6796631 102.4700394  13.0064361  -0.6710354
  71.1837244  91.1704540  26.4555597  71.0034132  90.2866840  26.7759943
  71.6799307  91.5846157  27.1615911   7.8313601   9.4844812   9.3749624
   8.2755786  10.2830923   9.6597821   6.9156092   9.6199495   9.6184373
   7.0503992 101.6249561  77.1608162   7.2742933 101.5063763  78.0838776
   6.1020398 101.4998150  77.1264029  90.1456928   8.5405225  37.0394468
  90.4998398   8.8452142  37.8748918  89.5995903   7.7891278  37.2705650
  14.0829182  29.4123125   9.2636383  13.6106491  29.6400571   8.4628093
  14.3754017  28.5120583   9.1214144  35.0592399  68.1569815  78.3796740
  35.9340405  67.8913927  78.0960941  34.9445939  67.7339602  79.2306423
  84.3038845  94.9367714  54.7043467  84.4800758  94.3335819  53.9823008
  85.1295853  95.4034233  54.8335171  27.2073174  72.5288439  87.4665260
  27.9450512  73.1122828  87.6442242  27.6004696  71.7701483  87.0351887
  37.8962994  65.7273626  91.5343380  37.7406120  64.8219872  91.8032074
  38.4730911  65.6555462  90.7738209  92.6453304  37.7909875  40.9361029
  92.1927643  37.1330595  40.4083252  93.2611942  37.2882056  41.4691591
  77.4679661   6.8061018   4.4398528  77.0651388   6.1990499   5.0606978
  77.9308128   7.4386078   4.9893466  34.6442890  71.9668961  56.2655783
  35.2369547  71.2896967  55.9394169  33.7687898  71.6351986  56.0663033
  48.7546825  79.5671368  33.0642271  48.8300896  80.2363873  33.7444162
  49.5101261  78.9964104  33.2049680 106.4254761  25.9921861   4.1960925
 107.0728207  25.2938914   4.2938665 105.8041859  25.8443737   4.9091002
 110.4604816  44.3174410  90.5026054 110.1839352  44.6850872  91.3420010
 110.9226704  45.0341082  90.0678539  96.9448185  12.7570975   3.1460932
  97.4695873  12.1676064   3.6877126  97.2941589  13.6285043   3.3327636
  63.4583426  97.9237461  24.6224594  63.8246441  98.5035801  23.9547396
  63.4468699  98.4535503  25.4195833  10.6203842  32.3590875   4.9272481
  11.0620511  32.7154064   4.1564047  10.4257679  31.4514685   4.6936131
  14.9904013  20.3012037   2.3356396  15.2405488  20.7031918   3.1675428
  15.2137995  20.9575725   1.6757117  86.5229607   2.7792987  14.9063659
  85.7731056   3.2887310  15.2136588  86.1926079   1.8834157  14.8393655
  24.3080370  51.2802936  91.7410456  23.9320700  52.0064308  92.2386448
  24.4086687  51.6247703  90.8536650  81.3693333  16.8332386  11.2889159
  81.8854618  16.3786709  10.6231725  80.5642700  16.3202703  11.3594019
  99.2378521   7.3277080  11.5680432  99.3731499   6.4794302  11.9903600
  98.6910534   7.8168470  12.1828532  82.8305435  37.7913499  10.4545760
  82.7731133  37.9431033  11.3979244  83.6843586  37.3769093  10.3301942
  33.8343835  42.4227667  81.7087650  33.4152102  43.1294632  82.1997929
  33.4663701  42.4921417  80.8278656  24.9859881  64.9607086  85.0329018
  24.0299463  64.9629879  84.9858475  25.2707767  65.0451565  84.1229630
 112.2658323  34.4754434  31.1635160 111.9874539  33.5945487  31.4140391
 111.4512107  34.9730945  31.0930419  19.6424139   8.1119132  10.7793534
  19.1610169   7.5765151  11.4100969  19.3918431   9.0117586  10.9884560
 100.0243378  25.2708554  24.6890092  99.5759773  24.7501731  24.0226054
 100.9553242  25.1328492  24.5144892  81.9928837  34.8453307  10.8551145
  81.9470119  35.4131746  10.0859070  82.8992462  34.9194503  11.1538339
  98.7580204  25.2972412   5.4203135  98.3550262  26.1289167   5.6695968
  98.1964111  24.6308017   5.8161557  17.3942113  70.1268816  61.0550308
  17.4425685  70.0774908  62.0097303  17.5717330  69.2338514  60.7597017
  27.7740765  49.3434477  73.8164425  28.6396742  49.1048431  74.1481638
  27.9357219  49.6504354  72.9243326 108.1215954  51.9874430  88.0420780
 107.9553699  52.9157591  88.2058907 107.5938511  51.7821693  87.2703362
  10.3494787  31.0627723   0.4427531   9.4268739  30.9472656   0.6701098
  10.7002068  30.1729202   0.4055383   5.0345230  33.6525488   4.6450251
   5.7558221  34.2540455   4.8298559   5.4311138  32.7824593   4.6884927
  77.5674295  27.8486133  32.2252321  77.1445465  28.6497688  31.9161153
  78.4615326  27.9042864  31.8880248  30.5282927  58.2972813  87.3634434
  30.7259417  58.5043240  88.2768440  29.9024105  57.5746632  87.4116802
  73.0199003  15.9510767  10.6246996  73.3785725  16.2527764  11.4593029
  73.1734371  15.0062716  10.6255591   3.5895681  83.5257149  82.6078606
   4.0243861  84.1507053  83.1879997   3.5409904  83.9756393  81.7643929
  10.1928651  19.5198059  19.2471826   9.9992353  18.9850986  20.0171351
  10.2555871  20.4130220  19.5855057  35.3070498  84.4923401  89.1983795
  34.7213030  83.8866997  89.6526241  35.4574513  85.1975632  89.8278713
 106.7277145  11.7955327   0.7304359 107.2019577  11.4709115  -0.0350413
 106.8877316  11.1383712   1.4077580  26.0942507  92.2344971  80.4708576
  26.6801715  92.6753521  81.0861397  26.2295318  91.3017178  80.6377602
 101.5830994  24.5896316  21.0286427 100.7962704  24.1966772  21.4064074
 101.7583847  25.3521681  21.5800476  86.6058540  10.6023049  19.5513582
  86.0177612  11.2198329  19.9861431  87.1559715  11.1495566  18.9909005
  89.3274117  12.5094950   2.9946056  88.8825989  11.7058372   2.7253321
  89.1886902  13.1154346   2.2667152 111.6877079  80.0485802  72.0472813
 110.9659672  80.0649738  71.4187479 111.2798595  80.2641582  72.8859806
   1.3066706  21.8279552   1.4802356   0.7585978  22.5354815   1.8197307
   1.3025749  21.9559216   0.5316368  52.8677845 101.4757442  19.0573585
  52.6355219 101.8588161  18.2114601  52.1671200 101.7544270  19.6469700
  22.0193481  66.8608141  67.5796318  21.5255857  66.3892365  68.2504892
  22.0586705  66.2540817  66.8403339   5.4422331  10.4431021  10.2869427
   5.1046991  11.0532105  10.9427404   5.2005088  10.8354139   9.4479597
  19.8639059  62.4497986  63.8443136  19.3409610  62.8251934  63.1359100
  20.3104520  61.7041922  63.4431934  82.6791859 105.3767967   4.7487620
  83.0471039 104.5728493   4.3819764  83.1533146 106.0808182   4.3062848
  13.7091506  52.6254416  76.3756084  14.1740179  52.2924089  77.1432114
  12.9922223  53.1465054  76.7371845  24.0783858  91.8592167  86.4458561
  24.5721459  92.3440552  85.7845211  24.5903683  91.9596004  87.2483730
 106.3938904   9.9692762   2.9176238 105.7225323   9.3462628   2.6394796
 106.8740273   9.5117354   3.6078095 112.0538521  66.8294048  82.9548740
 112.2757149  66.1757135  82.2917843 111.2876129  67.2801065  82.5999355
  31.8065262  76.0030413  72.9604483  32.5477982  75.4808426  72.6537609
  31.1623859  75.9419823  72.2550488 106.9897175  86.8759060  50.6400681
 107.3084164  85.9783459  50.5449629 106.7908573  87.1554089  49.7464418
  65.8573580  86.9658756  79.4678259  65.4664946  86.0951614  79.5408106
  65.1115465  87.5540257  79.3491602  10.1208436  80.1744270  81.3377285
   9.2574251  80.3334522  81.7191124  10.5676615  79.6215010  81.9787025
  26.4271235  12.2076714   6.4744067  27.1207213  12.2620678   7.1318215
  25.8042431  11.5766478   6.8350500  85.6940269  96.9517422  19.7908700
  85.9120560  97.5998211  19.1210234  86.2649632  97.1679211  20.5281138
 112.0523167  22.7673268  19.8456168 111.8159389  22.3219252  20.6592345
 111.3131523  23.3488011  19.6674085  21.1919212  91.9813538  59.7789812
  21.1727905  92.5743675  59.0278482  20.4515767  92.2560787  60.3199530
  91.2302876  64.7835636   3.5312289  91.1392212  65.0252247   2.6095247
  91.1397743  63.8306856   3.5390717   1.0832562  45.1519632   2.2512664
   0.2224138  45.5535889   2.3690760   1.6885099  45.7496881   2.6901558
  96.8593025  15.0701714   4.7614157  96.8455505  15.9863520   4.4845477
  95.9366226  14.8373592   4.8648798  64.5321894  25.6066298  10.1621103
  63.8808393  25.3704453  10.8225608  65.1021242  26.2370682  10.6025124
   6.8841451   3.2186905  17.2272611   6.8984067   2.7500990  16.3927257
   5.9806216   3.5219324  17.3162663  34.0109301  15.0227094  61.0523033
  34.1016960  14.6629119  60.1699543  34.8815465  15.3592300  61.2644672
  22.3388815  90.4287243  72.9562950  23.0182743  90.6973839  73.5747480
  22.4311638  89.4778156  72.8972864  17.3288333  76.0680342  66.7990208
  16.4403546  76.1833954  67.1359587  17.6486969  75.2770329  67.2328758
  12.4113834  59.8970079   6.5732026  11.4736569  60.0854015   6.5356380
  12.6723611  59.7965670   5.6577611  24.3272448  67.5705051  60.3807449
  23.9593220  67.1361542  59.6111965  25.1909399  67.8698635  60.0967646
  51.4899683  84.6182346  71.6563320  51.2104416  83.7229919  71.8477535
  51.5823269  84.6418285  70.7038879  38.0847335  86.8631458  40.6106329
  38.8616323  86.5744209  40.1317835  37.3812032  86.8399143  39.9619889
  75.5421305  96.7258930   4.6970156  75.6996918  97.3587608   3.9963892
  76.0369682  97.0657921   5.4425561 103.6400755   0.8657426  29.3163466
 104.0436037   0.0806302  28.9462042 103.6782367   0.7309503  30.2632403
  45.6717014  91.7996120  10.0866783  44.9341726  91.6287231   9.5009452
  46.0641003  90.9392262  10.2350044  83.1658363  88.1236553  33.3547878
  82.3992252  88.6933422  33.4180331  83.0968857  87.7247238  32.4874187
  21.5997601   2.5511497  28.4729910  20.7827592   2.1235150  28.2163429
  21.3343048   3.4280068  28.7502742  98.4115410  17.1759260   2.9425153
  99.1714668  16.5980387   2.8732690  98.7478447  17.9636979   3.3697692
  26.4074993  77.3616362  88.1920719  25.9417677  76.8548965  87.5268364
  25.8915710  77.2415972  88.9893436  64.7293329  99.2798138  20.9407401
  65.1784945  98.8791561  21.6850257  64.0540171  98.6459637  20.6990433
  42.2140837  79.8640299  57.7541780  42.5476074  79.1112423  57.2660160
  41.6536379  80.3250408  57.1299982  15.4327738  14.2442286  35.5452251
  14.9414027  14.7965956  34.9372149  16.0423005  13.7591326  34.9889946
  17.2440970  21.4289403  15.2788055  17.4728942  21.9013381  14.4783545
  17.9457092  21.6447544  15.8931315  92.7116013   4.3654618   3.6715472
  92.8355598   4.7689006   2.8124177  93.0197048   3.4660333   3.5604906
 100.4623795  81.7481804  79.0900707  99.6590710  81.2285042  79.0604925
 100.2161026  82.5430870  79.5630407  91.1896420   1.7093192   6.0224122
  91.5080070   2.3379655   5.3745866  91.1648083   0.8747789   5.5542696
  34.1212773  42.5849628  91.8861675  34.3740606  43.5069323  91.9341660
  34.7280264  42.2029495  91.2520123  99.7019291  55.5617142  85.1719761
  99.4910431  54.8524284  84.5648003  99.7575951  55.1360273  86.0275078
  28.6077952  91.8374062  36.7098069  28.1833172  91.2199974  36.1141062
  28.0069828  91.9058800  37.4518108  44.1507387  97.8958511   8.1257826
  44.4495964  98.3597660   7.3436707  44.1970444  98.5489750   8.8240093
  63.8356686  17.8675675   8.7448686  64.3634558  18.0474174   7.9668415
  62.9307604  17.9126084   8.4360904  16.6564763  63.9899921  85.4540539
  16.1299026  63.8177586  86.2346268  16.0244703  64.2875862  84.7996616
 106.8719578   8.1060177   5.0178885 107.4340534   7.7406961   5.7011271
 106.8432999   7.4276417   4.3431908  75.0996971  32.0885086  21.3829565
  74.9440002  32.3260236  20.4688573  74.7107458  31.2186456  21.4739895
  55.8497095 103.5550594   8.0789250  54.9381876 103.8204765   8.2010609
  56.3012505 104.3595219   7.8236133  40.6140184  41.8663216  78.9803219
  40.4851341  41.0355806  78.5226202  39.7334933  42.2318554  79.0657187
  82.4335766  88.3296204  38.3611155  81.8689442  88.6426258  39.0678334
  82.8970814  87.5818348  38.7382221  19.2583191  82.2718048  90.4300785
  20.1575708  82.1336174  90.7275391  18.7969005  81.4721394  90.6827927
  64.0837193  99.2820835   6.5359300  63.3242893  98.9013481   6.0948658
  63.7995005  99.4013405   7.4421465  19.5604610  27.6925969  65.6134892
  19.7741818  28.2880759  66.3317966  18.7335634  27.2880125  65.8757544
  29.8623347  36.9331098  88.3737946  29.8322272  37.8711796  88.1857872
  29.3771744  36.8374014  89.1933632  23.5860300  74.3142509  88.0459404
  24.1182899  73.8699341  87.3860073  23.6186457  73.7366486  88.8085365
 100.0853062   3.1119159   4.1965649 100.1313210   3.9395842   4.6751869
  99.5829296   3.3186057   3.4084463   0.1904852  26.3870335   3.4884721
   0.3079397  25.9319949   4.3223649  -0.2109640  27.2228384   3.7261689
   3.2965407 100.4877090  86.7732716   3.2726219 100.0548649  85.9198570
   2.8026325 101.2975407  86.6450119  95.2659798  24.9419141  29.9820709
  95.9638023  24.2961359  30.0926924  94.4692993  24.4811058  30.2451301
   6.3935417  21.1226130  10.4612410   6.6346288  21.7217493   9.7547394
   5.4672849  20.9344006  10.3100562 102.3544598  48.7097120  16.8666232
 102.4217224  49.3878126  16.1943948 103.2049751  48.2708645  16.8500948
  60.0483084 103.6437035  38.3382654  60.3403854 102.9663467  38.9482760
  60.0156164 103.2032776  37.4890375  31.8863297  29.6461415  77.2269249
  32.1237922  29.6259403  78.1539822  32.6126146  29.2073011  76.7840242
  19.9980903  78.9594078  59.6798277  19.9304211  78.7723351  60.6161261
  20.9336829  78.8920689  59.4891310  26.9042563  68.0407763  56.2213421
  26.3865209  68.6800528  55.7319450  26.9822741  67.2923899  55.6296778
  32.4673700  87.9242325  91.2238884  31.9075823  88.6010361  91.6044235
  33.3214903  88.0615902  91.6335773  70.7397890  94.1523457  24.3721199
  71.5528917  94.6288586  24.5395255  70.7060957  94.0633202  23.4196639
  94.4251156  19.9456251  12.1612942  94.4536209  20.7225847  11.6029453
  93.5339832  19.9342346  12.5105560 111.0019112  87.0908928  75.3951788
 111.0782719  86.6446590  76.2385511 110.3419876  87.7685928  75.5416727
   7.3149097   8.5835862   5.9326279   6.7667496   7.7996254   5.9666514
   6.6925305   9.3089241   5.8800858  19.1487098  40.1005268   2.3072392
  19.3462980  40.9248161   2.7519128  18.2909167  39.8449779   2.6465297
  78.4287119 100.4503059  41.7442656  78.3741236 101.3962269  41.6083097
  77.5193548 100.1522923  41.7222118  15.7400894  56.0688210  84.6169662
  15.6469095  55.5487299  85.4151249  15.0102293  55.7909870  84.0634823
  94.5774601 106.0275396  38.5713172  93.7298379 105.7219201  38.2482624
  94.4036327 106.3110004  39.4689059  39.9894786  49.1411400  69.6975136
  39.7184825  49.7193003  70.4106236  39.4551969  48.3549881  69.8103619
  63.4147923  25.0917007  91.8873046  63.2080071  25.1275541  90.9533959
  62.9186432  25.8150865  92.2704189  38.2401419  16.9406986  49.1449642
  37.7523375  16.1456203  48.9301920  37.9693937  17.5745726  48.4807873
  31.8541622  66.9925261  49.6004915  31.4813018  66.7905903  50.4586458
  31.2346005  66.6159630  48.9755344  36.6293192  85.3009033   1.0577028
  37.4207497  84.7929382   1.2361395  36.3140821  85.5647469   1.9221379
  93.7382698  30.4437542  36.7229557  94.6016788  30.8039117  36.5203476
  93.1600189  30.8202648  36.0595632 104.4415855   1.3957737  32.6511955
 104.3542099   2.0971972  33.2966423 104.8844528   1.8070962  31.9089580
  13.3008504   9.2289418  49.8346472  14.2190790   9.4192135  50.0266981
  12.9600966   8.8504171  50.6451035 111.8037701  10.4022896   9.7066963
 111.8341827  10.6306112  10.6357694 112.5435543  10.8711171   9.3204993
  35.5022216  67.1321392  89.9030495  35.6423426  68.0387354  90.1763248
  35.4458880  66.6409159  90.7226658  60.3789043   9.9703395   4.2491189
  61.1931181  10.4655325   4.1592750  60.2579308   9.5516515   3.3968878
   7.3731941 100.5953407  71.0782862   6.5671635 100.2300644  70.7134247
   7.2947049 101.5386009  70.9357023  23.2847390  69.6927531  91.3589692
  23.7188325  69.0373965  90.8127988  23.6505589  69.5565124  92.2329540
   4.2350125  23.3448172  11.5285110   3.3981568  23.5784054  11.9301844
   4.1605508  22.4078417  11.3474965  56.1511660  97.6833630  11.1577809
  55.2531815  97.4803925  11.4198089  56.6863680  97.0339966  11.6139734
  68.7299156  96.2813950   6.1947674  68.4881258  96.0666847   7.0956945
  69.4737911  95.7100773   6.0037804  50.3661966  48.9616823  89.6622372
  50.2752686  49.0796041  88.7166882  51.1761236  48.4618855  89.7644806
  43.9848995  45.0189686  68.3599424  43.5977459  44.4322491  67.7102470
  44.3940687  45.7126188  67.8425837  17.6941979  54.1216278  17.1435869
  16.8824470  53.7543154  17.4934042  17.4878955  54.3350410  16.2335730
  30.0473189  52.3610973  79.6604490  29.1101718  52.4907732  79.8059464
  30.4580665  52.6454592  80.4769421 107.7574444  21.3574910  15.0903237
 107.1662331  20.7410312  15.5223942 107.1822357  21.9103074  14.5613945
  48.4454250  11.7131817  11.2242484  49.1817665  11.1164725  11.3583028
  48.8506889  12.5740731  11.1200321  99.1387463  25.9625292   9.1503084
  98.1926155  26.1024952   9.1119355  99.2563152  25.0484037   8.8918847
  60.6657887  50.6112337  91.9372749  60.1068020  51.2244320  91.4600372
  61.4663601  51.1050987  92.1145153  78.2680988  79.2450571   9.1320163
  78.3494616  78.3304358   9.4023585  78.0930662  79.2022753   8.1919289
  41.7464876  63.5484266  90.8344364  41.9719362  64.2207909  90.1915359
  42.0637751  62.7319860  90.4484558  37.0761156  65.4918671  88.1592274
  37.8798556  65.9505987  88.4037590  36.3744307  66.0146952  88.5472012
  72.9816341  10.3987896  48.7244940  73.2128763   9.6764660  48.1405354
  72.9657555  11.1696625  48.1572771  88.0225086  20.2023268   5.6535983
  88.4437752  20.7171869   6.3418472  88.7152863  19.6292603   5.3251463
  23.2891345  71.1502504  77.1809530  23.6180925  71.4238930  78.0371904
  22.5762343  71.7604351  76.9920778  88.7528419  99.8432350   5.0297481
  89.1239929  98.9862633   5.2396768  88.1057835  99.6634483   4.3476778
  64.3061256  97.5638962   4.2529494  64.3047476  97.8099251   3.3279070
  64.8579597  98.2223225   4.6750781  14.2030156  23.4982157  16.0006523
  13.3661747  23.7899137  16.3623714  14.5165324  22.8411150  16.6220677
   6.3693434  58.5547876  87.5614738   5.5638140  58.5079002  88.0764008
   6.5811813  57.6423311  87.3645496  63.7343168  85.1020336  79.8488045
  62.9586172  85.5167007  80.2263927  63.3962107  84.5777416  79.1228294
  64.7072601  64.2132139  88.6996937  64.5026970  65.1153374  88.9457703
  63.8531113  63.7957811  88.5882950  60.9190647  40.8102467  91.4000706
  61.2343781  40.4642155  92.2349781  60.4825871  41.6304542  91.6302535
   5.0804240  62.5828981  76.7346621   4.8188868  62.5248146  75.8157206
   4.4162846  62.0789909  77.2050142 110.9718037  24.7864866  12.7530897
 110.5802250  23.9702725  12.4421418 110.3834629  25.4710078  12.4344778
 103.0437374  17.8479719  37.7690840 103.7413692  17.5291145  38.3416867
 102.7323246  18.6475122  38.1933355  15.7802844  48.5163689  86.4526367
  15.9049618  48.0274343  87.2660446  14.8302948  48.5857153  86.3580799
  28.8143516  32.8486800  87.7333927  28.2120037  32.1164584  87.6020145
  28.8825655  33.2602358  86.8718815  76.5865612  10.5798471  33.6688042
  76.6235924  10.5027092  34.6221709  77.0065689   9.7819996  33.3474588
   7.4157298  17.7290082  14.3903589   7.1056950  18.4385026  13.8275731
   7.1629053  16.9293845  13.9289343  10.8984637  60.4206467  63.9962912
  10.3602982  61.1798048  64.2205429  11.5587687  60.7644796  63.3946133
  25.9475851  60.8023405  85.2736187  26.4555025  60.1444912  85.7484722
  25.6288123  60.3436422  84.4963074   8.3041793  34.0700984  28.3573580
   7.9221225  33.6752582  29.1411734   8.8519180  34.7811174  28.6900210
  67.3354705  88.2546685   0.6919655  67.1467812  88.3152817  -0.2444950
  67.4522193  87.3183034   0.8526501 112.2035789  23.3294606  33.6650777
 112.8288651  22.8165007  33.1530952 112.4996567  23.2338142  34.5702958
  27.3347330 104.0286541  20.4794192  26.4818501 104.0477943  20.9135342
  27.8925943 104.5852470  21.0227680  29.3302107  77.6071167  84.2044544
  28.4904790  78.0664968  84.1972542  29.1870785  76.8554211  84.7795200
  37.6343632  36.1537337  66.4679289  38.1372309  35.9560037  67.2580290
  38.0631161  36.9254613  66.0980082  42.5209188  60.6585646  90.8225918
  42.5087929  60.2383947  89.9626255  43.3948565  61.0433722  90.8888435
  77.8864050  74.1942072   2.9176468  77.2969198  74.0723467   2.1734080
  77.3061705  74.2421198   3.6774284  27.8820515  68.8771009  80.7181549
  28.4590292  68.3803034  81.2982655  27.6123333  69.6335316  81.2390137
  25.8031297  56.1682081  83.0874729  26.3253665  56.0327530  83.8781357
  24.9627662  55.7529974  83.2814407  31.5778399  34.5586634  82.7919579
  32.1588707  33.8538408  83.0780697  30.7176638  34.1451597  82.7188492
  35.9804416  36.3390470  55.3994370  35.0233173  36.3489866  55.3923893
  36.2103081  36.0292149  56.2754488  94.9647903  18.9567482  21.1706495
  94.3016529  19.4845092  21.6155624  94.5787430  18.0824912  21.1170173
   1.2094099  22.3421597  35.7398987   1.3610823  21.6666818  36.4009261
   1.3088304  21.8860912  34.9042249  10.1929879  75.1334238  17.7453268
   9.4567573  75.6724977  18.0344546  10.7072401  75.7122946  17.1825790
  23.1806827  47.0810604  13.7204790  22.6590490  46.9456339  12.9294097
  24.0021324  46.6211939  13.5473490  84.2258930  69.9070835  36.9543052
  83.6824512  69.1255856  37.0550990  85.0975132  69.5680380  36.7504430
   8.7167394  40.1726866  16.7398715   9.2499989  39.9364161  17.4988472
   8.9417076  39.5202088  16.0766256  90.0207424  39.6503615   6.3048893
  89.6746159  39.2943859   7.1232468  90.1455021  38.8845301   5.7443815
  51.3473082  58.6754322  84.0236187  51.2184858  58.4699249  84.9495792
  50.4683685  58.6410332  83.6461163  22.8994417   4.8852932  44.9265718
  22.8665876   5.1293170  45.8515596  23.3029938   4.0173316  44.9220324
   3.0198544  64.9735498  86.8598747   3.1294864  65.7916546  87.3445511
   2.0830560  64.9327755  86.6675758  43.8806581 101.8104649  84.7260571
  43.9809895 102.7373695  84.9428463  44.6664667 101.3949966  85.0812054
   7.6604277  28.9304209  10.2846456   6.7721182  28.9552879   9.9289489
   8.2053202  29.3092775   9.5948684  99.8046589  34.3557668  12.5664663
  99.4968128  34.9496841  11.8818307  99.4509697  34.7212052  13.3773851
  89.7142887  18.3163393   5.1675832  90.2782631  17.5600696   5.0056434
  90.3096199  18.9955616   5.4845661  32.5122213  82.5477695  72.1948051
  32.9983497  82.1550179  71.4697838  31.9894624  83.2379532  71.7866230
  86.6600227  15.6532693  65.2617073  86.2182522  16.1914945  64.6049118
  86.0468864  15.6201172  65.9960032 104.6494007  28.4210610   6.3904160
 105.3414726  28.5957456   7.0281887 104.7918606  27.5124264   6.1252326
   2.2618830  72.5373125  16.6625142   2.6933080  72.8316164  15.8603358
   1.3453144  72.7880573  16.5473592   2.6354158  37.5151324  11.9924474
   2.7241796  38.4662962  11.9320941   2.5013664  37.3457813  12.9249609
  80.2108765  90.6396484   5.7344216  80.2922916  91.4634514   6.2149978
  80.9666729  90.1233101   6.0144246  64.8980808  61.3293171  85.7610226
  65.4198217  61.4682150  86.5514183  65.5261517  61.0119629  85.1121521
  41.3085699  90.8421135  83.7514877  41.3483953  89.8859215  83.7329388
  40.5076361  91.0390949  84.2372131  60.0146103  91.2465382  78.1044006
  60.8668423  91.6809082  78.0689907  59.8490572  91.1197090  79.0386057
  25.9930182  81.0955048  80.0792503  25.4526663  81.3391781  80.8308315
  26.6477346  80.4970169  80.4389572  43.4871674   5.1017618  19.6993268
  43.4667730   4.5114949  18.9460671  42.9809427   4.6478587  20.3730774
  81.1231327  96.8512726  71.0533714  81.3409328  97.1201229  71.9458485
  80.2961636  97.2948265  70.8646870  25.0642729  64.0951920  77.8221607
  24.9352407  64.3443108  76.9070005  25.9513927  63.7367630  77.8500271
   6.5841198 101.9984436  79.9469852   5.9050614 102.6178741  80.2142334
   7.2860509 102.1221733  80.5858994  38.1123424  41.8482494  73.9644384
  37.7801871  41.1607981  73.3871031  38.8345289  42.2431469  73.4758329
   5.7221633  24.8628783  14.1783440   6.1291295  24.8969722  15.0440502
   6.1601502  24.1355777  13.7362647  39.4529796  79.9055481  84.1016483
  40.0565434  80.3593349  83.5134125  40.0017881  79.2751980  84.5682240
 100.1784515   7.4358416   7.0639873  99.4499588   6.8669832   6.8151182
 100.9345436   6.8506336   7.1096075  93.9842796   6.2666309   0.5504244
  94.4380665   7.0308954   0.9056915  94.4644451   6.0535181  -0.2497404
  25.0800014  76.6258240  90.8961868  25.1829052  75.7106209  90.6353283
  24.3572640  76.9484949  90.3578758  16.4191782  30.7010150   0.9834976
  17.1017754  30.8050299   1.6464266  16.3596213  29.7554183   0.8473606
 101.5490246  22.4307871  27.6565933 102.0901585  21.6684914  27.8623080
 102.0285988  23.1718707  28.0267811  70.4479408   2.3912002  48.9593506
  70.2390528   2.1599059  48.0543089  69.6757317   2.8637949  49.2701197
  96.7939186  43.6673212  50.5080795  97.3316574  44.3249893  50.9491396
  96.7305470  43.9765644  49.6044302  81.0186863  21.6192865   9.1851884
  81.6849804  21.7932057   8.5203379  81.1505508  20.7012749   9.4220310
   9.8999774   2.1483149  38.8892817  10.4304421   1.8353498  39.6220112
  10.2647293   1.7053607  38.1231356  25.7221985  47.2869635  24.5812535
  25.5221963  48.1868935  24.3236566  25.2384400  47.1582365  25.3971219
  16.6229582   4.4371367  51.0035181  15.8745921   3.9982247  51.4079142
  16.3251662   5.3355366  50.8605909   5.5554742  96.1020565  87.1110821
   5.7004058  95.6848145  87.9602718   5.5396253  97.0394039  87.3043728
 106.1684990  19.2946661  19.1444325 105.7465267  19.9289465  18.5649014
 107.0965099  19.3403685  18.9143348  19.6550643  56.3807583  74.3875122
  20.5478811  56.4611197  74.7231531  19.2255199  55.7754946  74.9919796
 104.2680550  23.0134034  23.1057692 104.3422318  22.0594501  23.1322622
 104.3074894  23.2309294  22.1744490  14.3178046  30.7163501  18.8805163
  14.9167597  31.1894560  18.3028877  13.5379386  30.5665851  18.3460915
 105.2816486  34.0093780  26.8230605 104.9585724  34.2435861  25.9530044
 105.4219055  33.0634952  26.7798615  33.8551474  38.0538535  27.5707126
  32.9388595  37.8180933  27.7158499  33.9165449  38.2072496  26.6278815
  23.6215353  30.0025034  12.4127722  23.7484312  30.4837966  11.5951622
  22.6748180  29.8734570  12.4702764  35.3031254   1.7283060   8.0443347
  35.7840061   2.1709967   7.3450422  34.4468021   2.1559173   8.0540168
  90.6572533  45.8570910  20.1789141  90.2753258  45.1986885  20.7593179
  91.4196587  45.4243040  19.7946525   3.4650147   1.5901460  63.3570766
   3.2201242   1.0432374  64.1035032   4.4074491   1.4540769  63.2594299
  71.5606499  84.6722698  87.4748135  70.9532833  85.1520634  88.0379677
  71.9435787  85.3429413  86.9093037  94.3185711  10.3227770  23.9472914
  93.5183334   9.8867559  23.6544943  94.1312981  11.2565827  23.8515639
  23.4740806  22.3805761   4.7528839  23.5915303  21.4368200   4.6444392
  23.1561041  22.6817298   3.9017490  64.2183352  17.2558165  72.5086832
  63.3098030  17.4591994  72.2863388  64.1782379  16.3873935  72.9092693
  64.3965960  92.6493454  71.7204571  64.9162674  92.6706982  70.9168959
  64.8571205  93.2372570  72.3192167 106.4840794  32.0036602  30.6390667
 105.9339333  31.2214708  30.6808805 105.9129906  32.6788545  30.2727461
  48.1444597  76.0512352  69.1508436  48.0317020  76.8072462  68.5746813
  48.9584732  76.2285995  69.6221781  34.9679375  99.3573093  85.7345295
  34.8624754 100.2224159  85.3386688  35.8752775  99.1170311  85.5468369
  95.6454468  39.9714732  19.9976671  95.7560825  40.8174276  19.5636690
  95.8416176  39.3262935  19.3183339  38.9837122  96.5749359  65.4671192
  39.7585750  96.0129738  65.4715395  39.1824746  97.2619629  66.1032915
  26.0251093  75.4255676  71.5532827  25.8352113  74.6132946  72.0227337
  26.2393141  75.1437473  70.6639433   0.8557699  50.6059551  16.2086856
   1.3079894  50.9123230  16.9947314   0.3435647  49.8535538  16.5049517
 108.3235741  32.3386717   6.6090393 108.8126945  33.0961514   6.9303137
 107.6194096  32.2203326   7.2465098   6.4947474  13.4250116   9.9789315
   6.3863075  13.1456697  10.8880198   6.3775742  14.3746662  10.0045741
 105.6277051  17.3938529   0.4606804 106.0647383  18.1530635   0.8464798
 106.1490336  17.1857707  -0.3146568   4.1294941  44.4105482   6.4570928
   3.8385019  44.9160862   5.6981564   5.0200325  44.7195244   6.6235399
  22.4659777  24.0433383  89.3252659  21.7508316  23.4112883  89.2523766
  22.1479487  24.8191500  88.8635254   1.2194593  68.2696152  53.8995790
   1.0570040  68.1464577  52.9643393   1.6674083  69.1136646  53.9557552
  83.0377579  20.6270838  13.1903028  83.4074020  20.8324933  14.0490222
  82.0952034  20.7538676  13.2987309  45.6589031  14.4231141  12.1226478
  45.1319504  13.8990104  12.7258635  45.0319958  15.0191343  11.7127895
  23.5078812  37.5793695  74.7528219  22.6198578  37.4259162  74.4301796
  23.6435676  36.8998170  75.4131460  90.1612377  24.1318655  11.9791830
  89.4452095  24.2290258  11.3514185  90.2713966  25.0057173  12.3539913
  58.8473990  96.5779860  91.2645492  57.8983167  96.7008002  91.2447039
  58.9758757  95.7892592  91.7914574  79.4579887  66.9645166   3.1348661
  79.8759747  67.8201389   3.2319847  80.0829983  66.3479567   3.5162503
  40.2977943  89.9303627  71.3136339  40.7578850  89.7182941  72.1257734
  40.7706738  90.6838226  70.9602022  49.5832109  55.8456039  89.0416241
  49.2973423  55.8359146  88.1281662  48.9513159  55.2886105  89.4962692
  91.0682106  27.7243996  16.2744009  90.7123947  27.6562142  17.1603906
  90.5434799  27.1127987  15.7578373  82.7645111  81.5040016  13.9596450
  82.1187496  80.8100319  14.0923786  82.4062729  82.2574711  14.4288862
 108.2317924  46.5994120  15.2368367 107.4913216  46.0626173  14.9543798
 108.9026451  46.4519024  14.5701814  23.1408906  48.5908890   8.8765377
  22.6175237  49.1893578   9.4095957  24.0189171  48.6388254   9.2546946
  47.9694700  61.6280460  90.3962135  48.4093857  60.8322287  90.6951714
  48.3572769  62.3278856  90.9216404  92.0529938  17.8779984  18.2361352
  92.4460793  18.5539091  17.6839960  92.7343941  17.2109962  18.3199525
  57.5284569 106.3920714  80.0900650  58.1973927 106.0420077  79.5016718
  57.5894444 105.8460481  80.8738899  82.7480316  14.5298994  58.9569044
  82.6609135  15.2922952  59.5290899  82.4734306  14.8442864  58.0955172
  83.8054562  47.9730129  19.6689856  84.1349602  47.8917551  18.7739682
  83.0269337  47.4164772  19.6890473  48.9958382  85.2230358  89.0943527
  48.9970779  85.0644875  88.1503773  49.5866346  85.9667397  89.2130947
  17.6235616  21.4624357  29.8475742  16.7599046  21.6775203  30.1998091
  18.0959415  21.0812593  30.5877042  91.8787098  32.9413390  29.0747905
  91.6279602  32.5005531  28.2629657  92.6476097  33.4599876  28.8380909
  56.5240145  83.0701160  81.9179726  57.2203684  82.4212170  82.0192337
  56.3656425  83.1062698  80.9746552  16.4938033  49.5446730  21.1315608
  17.4218702  49.5748138  20.8991504  16.1902452  48.7010098  20.7964301
  24.6873975  88.8878536  87.5092411  23.8984561  88.3486176  87.5642872
  24.3846893  89.7184181  87.1421528  53.6230373  78.5678959  85.2787876
  54.3249846  78.3102369  85.8763790  54.0763664  78.9511108  84.5278740
  11.9322979  15.3474367  14.8074758  11.8660951  14.7786129  14.0404761
  12.2359598  16.1854947  14.4586504  10.3562558  12.7135336  23.7092376
   9.5853841  12.7785897  23.1455398  10.3241527  11.8223166  24.0569925
  94.8220634   4.3843547  16.8421340  94.4808578   3.6980262  16.2687528
  95.7533932   4.1816974  16.9303429  16.6837776  79.6128798  78.9563704
  16.3059950  80.4481411  79.2318010  17.6023281  79.8131895  78.7764454
   5.9411794  89.0693855  57.4717093   6.3636136  89.0100002  58.3285952
   6.6560441  89.2623711  56.8651152  82.9348755  24.7429800  32.9929590
  82.3149586  25.4715228  33.0269504  83.3642864  24.8333788  32.1422768
   2.8986555  52.6605606  91.0258961   2.5553888  52.8825283  90.1603794
   2.6612431  53.4068203  91.5763187  36.2541389  95.3598881  90.0652409
  36.0345316  95.0015354  90.9252357  37.1132755  95.7641315  90.1864910
  66.2999821   0.9660968  89.7235680  65.9302855   1.8406014  89.6019268
  66.0702085   0.4953625  88.9224148  96.4197731  29.4089413   8.1426096
  96.4966297  28.8928533   8.9450914  97.0153046  30.1466608   8.2743192
  76.1452866  55.6769133  91.0627651  76.8829250  55.0906754  90.8941078
  76.5232944  56.5553617  91.0219002  56.7237854  95.5443001  88.3207417
  56.2675619  96.3675404  88.1464672  57.6435947  95.7941818  88.4087276
  47.4421406  40.0130415  88.3201981  46.9125414  40.7753420  88.5539913
  47.8812122  40.2663565  87.5082397  14.0754843  51.6850185  71.6335011
  13.6296451  52.2727442  71.0235500  13.7015271  51.8984652  72.4883842
  11.1204529  28.9300656   5.7759160  10.2649367  29.1892815   5.4336733
  10.9522510  28.1151390   6.2490255  95.9677887  43.0383253   1.4186858
  95.0765991  42.9955721   1.0720044  96.5181065  42.7154922   0.7051345
 111.9181061  18.5823071  13.4201348 111.8487453  18.3367813  14.3427062
 111.2136459  19.2166257  13.2874799   2.5688243  28.5138893  10.4294288
   2.7836221  27.7442956  10.9565139   1.8501088  28.9344668  10.9014416
  58.9591026  19.7026861   8.6476940  58.1575871  19.1944754   8.7723136
  58.9913368  19.8720837   7.7061546  26.6005230  28.4104800  10.9661961
  27.2535610  28.5609794  10.2827311  26.2857985  29.2853951  11.1935794
  63.7096071 102.0662022  78.8425350  63.5439968 102.5122643  79.6730995
  63.6055040 102.7485085  78.1793165  19.9924529  37.0014071  11.6323650
  19.7341156  36.0892105  11.5004933  20.8596826  36.9490528  12.0341134
  43.9931250  86.1196518  88.4546947  44.1364765  85.8468056  89.3609142
  43.0460119  86.2412548  88.3881378  40.4713011 104.0281296  60.7272005
  41.1103392 103.8113976  60.0483131  40.9649372 103.9774799  61.5457296
 107.2661781  24.5178819  23.6162043 106.6005993  24.7742295  22.9778194
 107.9765034  25.1463723  23.4871244   2.0343405  24.6273446   9.2824805
   1.9044876  23.8322711   8.7655383   2.2273056  24.3104744  10.1648581
  30.6712341  11.2530804  27.0239305  31.5069437  11.7171681  27.0733356
  30.8706903  10.3675592  27.3277402  24.1830111  81.7881870  82.1698952
  23.8899302  81.3866901  82.9879093  24.0802264  82.7288055  82.3144817
 101.7605209   7.2768325  10.5966151 100.9870529   7.7493161  10.9043956
 102.2896004   7.9432791  10.1582599  94.5090294  39.1187763  15.5604565
  94.7412014  39.4852400  14.7072101  93.5818005  38.8948989  15.4806876
   9.3205142  23.2214737   3.9761382   9.2385465  23.7372351   3.1739521
  10.1061690  22.6916456   3.8410047  29.0125132 104.4915009   7.2208333
  28.5844803 103.7833214   7.7019805  28.4772992 104.6051025   6.4354205
  29.0713263  43.6991215  74.3042469  29.9422979  43.8864660  73.9541912
  28.6220360  44.5442581  74.2936039 101.7218113  25.5188203  10.0611317
 101.0605812  26.0388517   9.6044326 102.4523163  25.4656076   9.4448793
  48.1193781  95.2995014   4.5228508  47.3816252  95.5112362   5.0947988
  48.8564110  95.1715946   5.1200539  64.1117430  62.8607368  91.4114475
  64.5801353  63.6912155  91.4959717  63.3142138  63.0833578  90.9312248
 111.3342571  36.0671377  36.0099053 110.8763504  36.2472129  35.1888514
 111.3625050  35.1118779  36.0638642   9.5028335  23.5558605  47.0692444
   9.2713398  24.1104054  46.3241768   8.7312871  23.5807824  47.6352167
  66.2830448  67.4730539  64.8128414  66.4734745  68.3821249  65.0442648
  66.8450069  67.2951317  64.0586710  46.5118885  86.0257626  86.8420029
  45.6378603  86.3473129  86.6208363  46.3907623  85.5478668  87.6624775
 100.9144020  60.6742764  13.9248800 100.9104061  61.5416098  14.3297851
 100.0074959  60.5324697  13.6534846  96.8332672   0.2244224  14.1237712
  97.0646477   1.1371470  13.9516449  97.4714756  -0.2830972  13.6224234
  34.1834998  53.3673716  85.5917931  34.0982199  52.9525995  84.7333527
  33.6858582  54.1814232  85.5149746  18.5672808  93.2824039  87.0785236
  18.1970477  92.8411388  86.3140392  19.5009506  93.0739021  87.0465946
   7.0567477  15.5068517   2.9406413   6.4917934  14.7537756   3.1136563
   7.3351705  15.3936255   2.0318551  20.5292487  19.4436347  30.8014035
  21.0862923  20.2156591  30.9009743  19.7887194  19.6056104  31.3858771
  56.0460138  82.7391148  75.1445341  56.5627718  83.0612469  74.4060040
  56.6884804  82.5843906  75.8370161  54.8700333  82.9618168  64.7513819
  55.7636547  82.6322460  64.8465157  54.5084238  82.9326439  65.6371689
  44.0268040  35.4963803  79.0897369  44.3886805  34.7783160  79.6090269
  43.5283136  35.0633049  78.3967876  26.3684034  48.2089186  84.7628021
  27.2000217  48.6752987  84.6783447  25.9602451  48.5862589  85.5420589
  48.1508017 106.0895824  15.5880213  47.6152325 105.6937504  14.9004805
  47.7724361 105.7628632  16.4043069  42.3170710  19.0592289  10.6913960
  42.7068663  19.4363499   9.9026817  41.4344215  19.4282854  10.7223141
   8.5153693   4.6544459   3.9488709   9.4167781   4.5049611   3.6636540
   8.3370513   5.5645972   3.7121028 108.8387108  45.5771160  26.1487699
 109.1670036  46.4612436  25.9851646 109.4744396  45.0027609  25.7219291
  34.2741942  41.5048933   0.7452004  34.2309380  42.0381975  -0.0484940
  34.8665428  40.7875776   0.5197884  58.2886505  90.6852722  30.5962348
  58.9033937  91.4111519  30.7030916  58.7487173  89.9268627  30.9559298
  21.9767213  76.0924149  81.0914898  22.5354362  76.6311026  80.5312347
  21.3895392  76.7176819  81.5163326  33.3414197  53.4354925  68.3971310
  33.0836630  52.5670052  68.7061930  34.2610574  53.5165119  68.6499786
  24.5472622  75.5394363  81.8035984  23.9605188  75.1399660  82.4457645
  23.9691091  76.0469770  81.2340546  14.7734320  27.8010869  32.5731611
  15.5151701  27.8264070  33.1776571  14.8694170  28.5922456  32.0429850
  52.5146723 105.6422901  22.1990180  52.8684282 105.5277443  21.3169932
  52.9393148 104.9592113  22.7179670  25.4689360  91.2036705  74.4379568
  26.2925339  91.6663456  74.5923758  25.7149076  90.2789688  74.4120550
  47.4726582  97.9551506  90.8794785  48.3984518  98.1296158  91.0488892
  47.2897148  97.1468258  91.3584137  44.3191957  76.0910034  75.9053040
  43.9762545  76.8013668  75.3630829  43.6960745  75.3746414  75.7837248
   9.3167263  91.0410023  78.9321518   9.5505726  91.8904114  79.3063831
   9.0742689  90.5051327  79.6873283 103.0230045   1.3086589  10.4419267
 102.5279713   1.1356178  11.2426913 103.5381699   0.5140716  10.3023970
  38.4659753  59.6267159  91.4881839  39.2909131  59.8346384  91.9268977
  37.8796277  59.3580587  92.1954732  20.1688766  86.4274406  67.9094219
  21.0035920  86.0533428  67.6274061  19.8364019  85.8084202  68.5594273
   3.1097257   1.5196630  13.6972499   2.1942091   1.2623310  13.5884297
   3.4450877   1.5952222  12.8039110   0.2692110  45.8772564  28.3449531
   0.5168230  46.7613363  28.6157346   0.5402071  45.3188467  29.0736294
 110.7587719  58.6607552   1.7232537 110.3709602  58.3062840   0.9231424
 110.9505558  57.8904390   2.2581039  77.4004030  28.7226725   6.9248986
  76.7805004  28.2231951   7.4563813  78.2490444  28.3168626   7.1019906
   4.3215024  22.6819110  24.8115182   3.9919046  23.0137968  25.6466508
   5.2614212  22.8612137  24.8366952  50.8205271  78.5786009  84.5596504
  51.7431355  78.7882805  84.7047710  50.3742170  79.4246531  84.5948505
  32.2403264  98.3742905  89.0371609  32.0797276  98.0224323  88.1615829
  32.8651261  97.7644253  89.4294834   4.7262210  37.2717237   4.7602275
   5.1662976  37.7466011   5.4652488   5.4288554  36.7969203   4.3162689
  28.8247395  74.2562628  33.3987308  29.2385840  75.1090193  33.5320640
  28.7043262  74.1940069  32.4511790  24.3064904  63.4791088  24.5668077
  24.5006824  64.3993092  24.7450113  24.5203733  63.0268002  25.3828359
  41.6376305  91.9718361  70.4790115  42.0490074  92.3855782  71.2378359
  41.6971445  92.6294708  69.7860432  78.5977554  60.4291058  46.2391424
  79.1482353  60.4431581  47.0220900  78.0392647  61.2017202  46.3251305
  53.4909248  98.2313538  84.4333172  53.3090448  97.5678349  85.0988102
  53.4691572  99.0610600  84.9101257  98.9365578  44.4209528  26.5300155
  99.5917511  44.0863085  25.9176683  98.4259224  45.0465918  26.0161424
 112.3133278  38.1253839  12.8558195 112.0419407  38.6317420  13.6214459
 112.8413200  38.7350631  12.3403156  37.6150942  61.9006443  13.1225741
  37.2764277  61.7157364  12.2465920  38.0835319  62.7300262  13.0281150
  20.7291007  76.4874172  63.3147669  20.2147889  77.1351719  63.7965631
  21.5699100  76.4613724  63.7714911 112.2616005  18.6315358  16.0463071
 112.0213413  18.4611166  16.9570589 113.0204868  19.2121017  16.1034095
   1.9434413  63.8721800   2.3770764   2.7209616  63.6176634   2.8739807
   1.5915321  64.6250772   2.8519836   8.1922895  54.6041965   2.9118037
   7.3821330  54.2828608   2.5160474   7.9936218  54.6680069   3.8459831
  62.1285677  80.3485870  86.1710167  62.3278093  81.2828541  86.2317371
  62.9110718  79.9618483  85.7781506 108.0892277  13.2629609  31.5995240
 108.7855339  13.4146559  32.2385669 107.9685879  14.1103673  31.1710596
  15.9615290  21.7299223  21.0624218  15.9040534  22.6748610  21.2039161
  16.3046193  21.6413164  20.1732254   8.8153100  54.7890472  51.3061285
   9.4182217  55.5307198  51.3576317   9.3591255  54.0582800  51.0120535
  29.8852229  35.5359769  16.1775398  29.1880155  35.5144477  16.8330324
  30.6196284  35.0850439  16.5941191  60.0619793  78.3417606  70.0064659
  59.7511864  77.6229429  70.5568647  60.4459953  77.9102468  69.2432117
  18.9705777  76.9862032  86.1719131  18.2692456  76.3612652  86.3558102
  19.7746396  76.4718676  86.2438297  14.6523106  54.9903679  11.5169072
  14.1513228  54.8842430  10.7082152  15.3188539  54.3045139  11.4774835
 106.5486717  24.0392613  41.5933180 106.0640812  23.7441683  40.8223915
 106.6220474  24.9871039  41.4817667  59.2712021  82.3093319  67.8788280
  59.9699211  82.0571136  67.2751713  59.2624807  81.6156483  68.5383463
 105.9682083   1.1471191  60.6225348 106.1328125   2.0899057  60.6054735
 106.7665100   0.7581049  60.2652931   7.0237368  61.3213205   4.7122255
   7.1118182  60.3681993   4.7174865   6.6161567  61.5195370   3.8691235
   6.2216514  38.8926435  56.5016460   5.9983522  39.6948600  56.0296106
   5.3865176  38.4372663  56.6084909  30.8365750  89.3067074  65.6311035
  31.5384293  89.3514824  66.2804317  31.0702586  89.9681187  64.9798298
  42.2249937  94.7148991  68.9511919  41.7759180  95.5496407  69.0844870
  43.1557512  94.9339581  68.9951372  78.5799789  40.2228737  74.4298172
  78.3800507  39.3001795  74.2720413  77.8411961  40.6967354  74.0478706
 109.3425369  72.2761393  77.1588707 110.0221157  72.7271032  76.6578436
 109.5947933  71.3532925  77.1279716  42.7856922  35.3342271  11.1983967
  43.6184216  35.1750517  11.6427612  42.1960354  34.6662617  11.5481973
   7.9107064  48.2845592   3.4495845   7.6521927  48.2487917   2.5286484
   8.8611501  48.3959007   3.4274063 110.3719330  42.0618200  38.7300372
 110.5502796  42.8390980  38.2006359 110.0426674  42.4074888  39.5596910
  30.1212597  56.8547726  65.6794024  29.6297598  56.1558723  66.1109018
  31.0125518  56.7641068  66.0164595  72.7255964  87.4586964  86.0239983
  73.2254362  88.2221222  85.7349110  72.3181295  87.1228409  85.2256203
   9.2303532  88.2847118  83.6698532  10.1296496  88.3609200  83.3509636
   9.2930013  87.7011204  84.4259834  33.5591745  23.2682920   7.6424730
  33.4530616  23.0841398   6.7091668  33.9297605  22.4635315   8.0047703
  30.6400943  39.8886752  31.5386987  31.0903931  40.2051926  32.3218203
  31.3448191  39.6193695  30.9495735  62.8720951  67.3450422  70.8243895
  62.1342945  67.8381395  70.4655790  63.4491873  67.1982479  70.0749588
  32.4987102  58.6034060  35.7606339  32.0892811  57.7792406  36.0239768
  33.3910561  58.3596611  35.5145860  27.6755190  57.3944855   3.0656528
  27.0262337  57.1527863   2.4051659  28.2749414  57.9838371   2.6078412
  28.8446903  51.6001463   6.7172921  28.4536433  51.9872284   5.9340435
  29.7346115  51.3687611   6.4513385  64.7946739  74.0365505  67.3077297
  65.1416922  74.9285126  67.3222160  64.1567087  74.0161371  68.0210447
   5.0862986  14.7743762  29.3621492   4.2658100  15.2148008  29.5836353
   4.8307297  14.0871871  28.7467742  50.3272390   5.7776898  68.9503574
  50.1074553   6.7053378  68.8643646  50.1723623   5.5794704  69.8739147
  38.9176028 105.0878109  90.3078365  39.3911354 105.9082666  90.4451275
  38.3480637 105.2624730  89.5586014   8.5278457  12.4633396  38.8128185
   8.3165389  11.5297568  38.8149142   8.8912040  12.6286209  39.6828103
  93.8053322  35.8468556   4.6552092  93.9735985  36.3100028   3.8345915
  94.1098022  36.4471269   5.3358018  17.1557474  31.0097456   5.4759908
  16.3105977  30.7645607   5.0993758  16.9370019  31.6284776   6.1728054
   4.6086699  61.1159468  40.7296133   5.2479827  60.5101299  40.3547812
   5.1372790  61.8212414  41.1029243   3.6712244  18.6869836  18.7795913
   4.4844511  18.7594628  19.2792320   3.0119726  18.4427500  19.4291830
  10.1028526  91.3755608  72.1533680  11.0385966  91.2518978  72.3125029
   9.8444200  90.6112194  71.6383648  53.7766314  92.5326443  68.7714052
  54.1244459  93.3469009  68.4077644  52.8265905  92.6476479  68.7506962
  93.9135742   4.8342878  68.7389183  94.8499870   4.6627039  68.6393690
  93.8693905   5.7193130  69.1008711  81.4094162   0.3219730  53.0380011
  80.7467937   0.3922019  52.3508120  80.9081173   0.1738383  53.8398647
  62.6963663  96.1908913  87.6714897  61.7947149  96.1886406  87.3501682
  62.6587248  95.7027721  88.4940243  77.0146132   5.8747572  73.9705229
  77.6709509   6.5711659  73.9489555  76.3306379   6.2081599  74.5512581
   6.9806808  58.8956785   1.0545832   6.5196508  59.3160057   1.7805350
   6.4852816  58.0936527   0.8885394 102.5550461  50.3379154  32.6448321
 102.2266388  51.1963701  32.9121041 101.9100380  50.0209427  32.0125937
  58.5028362  85.1393890  75.4745245  57.7994442  85.5989265  75.9331036
  58.7840652  85.7504940  74.7935772 104.3103790  88.6657715  33.3782458
 104.8961830  88.5679913  32.6275730 104.5606232  89.5025349  33.7699485
   7.2416780  14.5191638   0.3989681   7.4121949  13.6738508  -0.0164905
   6.8423793  15.0489538  -0.2910438  73.0279541  99.3559837  71.7247581
  73.6038828  98.6847687  72.0908117  73.1081152  99.2494011  70.7768917
  87.0104599  91.1122894  86.7176914  87.0705032  91.4819241  85.8367825
  87.8107548  91.4034843  87.1546841  65.3415346  88.1741524  51.5288877
  65.9022665  88.2920551  50.7621336  64.9212456  87.3254395  51.3900185
  62.8104019 104.1132736  86.7600822  63.3789444 103.3561611  86.6194534
  62.1649075 104.0622997  86.0551167   2.8157485  74.3371725  11.1610162
   2.6509041  73.7991333  10.3866947   2.4949038  75.2065563  10.9213066
  42.4776316  80.9442425  86.4902115  43.2635832  80.5685806  86.8869305
  41.7535877  80.5689240  86.9913387  97.4143124  45.0819731   2.8992215
  97.8687668  45.7134819   2.3416364  96.9491577  44.5125484   2.2863480
  97.3155880   4.4794741  76.3241291  96.6203785   4.0687680  75.8100843
  97.9447556   3.7755138  76.4816570  69.9090672  11.8077278  27.4426031
  69.4763422  11.8601620  28.2947969  69.5838261  10.9935176  27.0585275
  91.9999504  89.0073681  73.0633783  91.6907215  88.2509804  73.5618687
  91.8381596  89.7554493  73.6382055  15.1215196  96.9726086  87.1598721
  15.4259849  97.3568916  86.3377666  14.9540949  96.0544014  86.9475269
  18.1083989  34.7700882  10.9906352  17.7759349  34.1248298  10.3666615
  17.4271739  35.4415536  11.0266542  28.4135103  37.5737834  27.9346299
  28.4860873  38.2278228  28.6297536  27.5482321  37.1845913  28.0613494
  29.7601342  96.2228203  64.6839523  30.4502201  95.6487274  65.0162792
  29.0743756  96.1837578  65.3506136  35.5495048  35.8186460  20.5847526
  34.8575807  35.9747124  21.2274933  35.6183028  34.8652911  20.5336094
  77.6654053   0.4808851  85.9634876  78.0750942  -0.0812102  85.3058910
  76.9476223  -0.0457773  86.3151169  29.7275376  79.6396542  78.5712719
  30.6805801  79.6624851  78.4851170  29.4369364  80.4906178  78.2431746
  97.4996662  94.6554375  85.0000000  97.6606750  95.0105476  85.8741856
  98.3007908  94.1781235  84.7840881  44.5058823  60.3304434  18.0342388
  44.1244745  60.7330179  17.2540498  45.3193617  60.8134890  18.1796598
  12.7390063  63.0125093   6.4257944  13.6126959  62.8032684   6.7561197
  12.6461601  62.4768162   5.6379867  20.1475239  73.1779957  20.4782867
  20.4752803  72.6788855  19.7301602  19.6962428  72.5300264  21.0193181
  18.9727569  42.3253059  19.8117399  18.6356175  42.2268057  20.7021713
  19.2865384  43.2287836  19.7730148  65.7960987   3.4284750  66.2964487
  66.1911821   4.1503456  65.8075285  64.9318933   3.7542269  66.5479755
  66.5602207  79.8448038  57.3114491  67.3507738  80.3749561  57.2104740
  66.0374165  80.3155804  57.9605055  90.5003834  20.5069518  79.8532104
  89.7891808  19.9627197  79.5152187  91.0883141  20.6234026  79.1068745
  30.6839895  54.9624968  12.3485875  30.1868248  55.7801485  12.3710918
  31.2007666  54.9741554  13.1542170  92.8974533  20.6577802  21.4635229
  92.2029877  20.3211570  20.8972812  93.3240700  21.3371396  20.9413147
  36.1025023 101.6737270  76.4343023  35.2917981 101.3477802  76.0434771
  36.4874005 100.9081936  76.8609667  97.0818710   0.7624975  71.2661314
  97.7262402   1.3809070  71.6105032  97.5375175  -0.0792719  71.2594366
  41.5108395 101.6498852  71.0543251  41.6419744 101.1753845  70.2334213
  40.6988716 102.1389675  70.9211922  27.6811218  43.3743048  25.8353996
  26.7626405  43.2865334  26.0901880  27.6517940  43.5823965  24.9015522
   5.1342785  38.1979418  18.9264929   5.8407611  37.9054737  18.3506668
   4.4960335  37.4849510  18.9037085  82.2620487   9.9629915  72.3214960
  81.7262173  10.2516043  73.0602932  81.9370461  10.4699194  71.5774298
  20.9025216  57.5866032  48.9584112  21.6148138  57.0513058  48.6086559
  20.4133439  56.9922447  49.5273352 111.2938499  39.3191838  38.4703970
 111.9036770  39.5313978  37.7637815 110.7673931  40.1112795  38.5783839
  71.0023165   2.0602198  75.5464077  71.1889172   1.4849849  76.2883759
  70.5210590   2.7945241  75.9277439  77.1337271  64.0645075   3.9603519
  78.0245638  63.9759493   4.2991671  76.9359684  63.2086897   3.5799634
  52.7405024   2.7467242  84.1834641  53.4338474   2.7009520  84.8417950
  53.1087542   2.3074962  83.4168434  32.1398807 103.6917210  82.8474331
  31.8649268 103.7350464  83.7632751  32.5264502 102.8210068  82.7543545
  19.3230903  50.9092379  79.5327330  19.1765738  50.5264378  78.6677313
  18.4893286  50.7960463  79.9890900   9.0829372  54.3898964  33.0851889
   8.1377357  54.5161295  33.1682038   9.1752058  53.6890173  32.4398279
  97.1141434  10.1280904  70.8170319  96.9473648  10.8237791  71.4529848
  97.0573902  10.5627835  69.9661207  57.5963974  69.9718332  88.3282948
  57.8898811  69.3807125  87.6349831  57.5191545  69.4137335  89.1021061
  16.4784443  29.6706629  10.5673385  16.7630410  28.7587976  10.5061829
  15.7285881  29.7277641   9.9751502  10.5129528  12.5199676  32.4573255
   9.8916698  12.3726261  31.7442131  10.7983422  13.4264386  32.3428869
 109.7819614  39.9182892   2.7286825 109.7197628  40.6081009   3.3893788
 110.5408001  39.3992138   2.9950729  27.1248484  15.5413401  78.9091587
  27.4070215  15.2122378  78.0557537  27.9263639  15.5703998  79.4316101
  19.8721790  44.0379620  11.9989181  19.4413638  43.7029266  12.7852917
  20.3978944  43.3033323  11.6824043 109.9144173  66.4324856   5.6748116
 109.5880413  65.8511639   6.3616735 109.3789387  67.2218609   5.7546777
  73.4954834   7.2535664  17.6627457  73.8854313   8.0208969  17.2439671
  72.8381157   7.6137429  18.2580400  49.9368858  85.9777069  91.8717766
  50.5988550  85.3480911  91.5860939  49.1684198  85.4431725  92.0716858
  96.1682701  17.3499060  15.0848079  96.4507675  18.0223525  15.7046783
  95.9910870  17.8294039  14.2755353  19.6956086  42.0076132   4.5355469
  19.4773471  42.4037790   3.6919552  20.4432821  42.5146532   4.8519820
  34.4318509  63.4642124  27.4116087  34.1775346  64.3266201  27.0832682
  33.6226249  63.0939770  27.7641869  26.9511819  26.9263220   1.4303656
  27.6933098  27.5224543   1.3298538  26.6584516  27.0582008   2.3321134
   7.0271647  51.7572308  10.1744664   7.7835757  51.8100691   9.5902729
   7.2136509  52.3924351  10.8658206  57.9990005   1.6939166  64.1871023
  57.4360943   1.7029223  63.4129667  58.8789177   1.8524492  63.8452673
   9.6725649  21.8239355  41.8195915   9.9360138  22.4661636  41.1605263
   9.3104160  21.0964465  41.3137865  14.4481289  40.5168295  22.4251676
  13.7426305  39.9363804  22.7107954  14.8285091  40.8495045  23.2381058
  25.2008963  96.4733028  58.1067705  25.2053285  95.5698776  58.4230471
  24.5362592  96.4826870  57.4180031 111.8853188   6.7068827  45.1536846
 111.7881107   5.7889271  45.4069424 111.3663387   6.7909032  44.3537855
 109.2152596  45.8942938   8.3387923 108.8788128  46.3394547   9.1165257
 110.1563358  46.0687923   8.3512449 105.5650234   0.7179135  13.0035758
 105.8235168   0.4679721  13.8906717 105.7707787   1.6510886  12.9481006
  24.4659567  43.0424833  11.0235620  23.5341311  42.8257990  11.0549176
  24.8705220  42.4528027  11.6598308  29.0342426  52.9924250  23.6911273
  29.1651893  52.9891300  22.7429318  29.4345260  53.8106155  23.9853501
 104.1753578  10.3611887  89.0583324 103.7496376  10.8779645  88.3742714
 103.4551907   9.9181324  89.5069790  23.2311726  20.1074004  22.2686577
  22.7651858  20.8721447  22.6066732  22.5712347  19.6260452  21.7696500
  62.3034286  99.2551613  64.6262121  63.2252026  99.3696976  64.3950176
  62.1786928  99.8106384  65.3957033 110.2335453  38.3524299   0.0747531
 110.3779411  39.1317511   0.6114433 110.3316975  37.6205921   0.6838607
  28.5869503  10.9121430  56.6474152  29.3695927  11.3078237  56.2638283
  28.2661653  11.5676677  57.2667789  48.9626837  93.1294250  57.1248531
  48.8965845  92.3590374  57.6890850  49.2370462  92.7819347  56.2762070
  60.9498930  80.2170658  44.5168161  60.1612902  79.7963190  44.8593187
  60.9064150  80.0738335  43.5713911  93.4813499  38.3605933  83.0555248
  92.9084873  37.7310443  83.4933949  93.6946201  39.0020585  83.7332153
  12.7873433  89.0697002  80.7197094  12.7796340  90.0177288  80.5877590
  12.2881520  88.7210178  79.9811602  22.2749901  33.8249445  14.4928765
  21.7095828  33.0692148  14.6523094  22.4806261  33.7774944  13.5592318
  11.3563478  11.9710803  83.8370323  12.1092033  12.4161577  84.2260647
  11.2704873  12.3614478  82.9672813 107.6019764  28.3777905  23.2707787
 108.2896042  28.8044548  22.7595544 106.8361187  28.3868361  22.6966572
  70.5014563  95.2686977  73.9099121  70.5577469  94.5855904  73.2417536
  70.4212093  96.0832024  73.4135485  39.5443916  27.0215631   9.7292495
  39.1818452  26.7360163   8.8906467  38.8802338  27.6090980  10.0897074
   5.3757030  21.5721464  15.4285979   4.7687811  21.4968729  16.1649477
   5.3835714  22.5061297  15.2192116  96.9251823  89.3665409  78.9204550
  96.8476677  88.4233570  78.7768221  96.3209057  89.7555542  78.2881975
   7.0399517  35.2923203   5.2762443   6.9576848  34.9677563   6.1729729
   7.9831421  35.3121591   5.1142901  89.0413952  26.4300871  81.2753296
  89.4723034  25.5768394  81.3255882  89.7221375  27.0239186  80.9588146
  -0.2277964  42.2417116  17.6755929   0.4792387  41.7323589  17.2794962
   0.1399214  43.1189489  17.7827072   7.1007297  35.9085195  -0.1011482
   7.9680965  35.8994596  -0.5058971   7.1987483  35.3746717   0.6872830
  42.3518515  85.2443790  52.0534801  43.1882286  84.7804928  52.0923376
  42.5358248  86.1023331  52.4359798  80.7503223  30.3319716  22.3234177
  80.7534027  29.4781470  21.8907404  81.0122299  30.9481025  21.6392994
 110.1974201  32.0898056  14.1292942 110.1163292  32.0609021  15.0826156
 111.0650063  32.4631619  13.9739251  83.3783245  33.2466936   8.4020048
  84.2790604  33.4274507   8.6707723  82.9416561  34.0976286   8.4401578
  47.5164413  91.8310356  83.2069302  48.0258656  91.7754555  84.0154076
  47.9766035  91.2576485  82.5939846 111.1594486  43.9862871  10.5851674
 110.2879906  44.1606665  10.9406924 111.5389538  44.8537970  10.4450595
  75.7126379 101.4008999  64.1675520  74.9560738 101.5408897  63.5981274
  75.7167673 100.4580975  64.3329048  13.5447657  34.3277931  16.9115663
  14.2519379  34.6070671  17.4930692  12.9821491  33.7838387  17.4627554
  12.0654356  97.8824902  80.2481079  12.6526999  97.8068161  79.4960213
  11.6929603  98.7611008  80.1736832  25.6356549  54.1760492   2.7517837
  25.1434088  53.6889172   2.0910066  25.1649642  55.0050259   2.8382495
  61.4191437 101.5688038  71.1168003  60.8364296 101.1169243  71.7271137
  62.2986746 101.2991142  71.3812256  35.7932234  17.2146153  43.9059067
  36.3253212  16.4348972  44.0644741  34.8937488  16.9264054  44.0611887
  48.3492198  79.4631226  90.6328646  48.6692527  78.8946612  91.3333389
  47.5616756  79.0252097  90.3100035  39.3897009 105.8509445  82.8940582
  38.8263249 105.6378269  83.6379814  39.3095994 105.0973415  82.3093319
  50.6688452  99.7685146  61.9282913  50.3931713 100.6287479  61.6117048
  51.2758350  99.4505501  61.2599373   4.2286456  41.6738844   9.7152662
   3.5604993  42.1188211   9.1938823   3.8288000  41.5699959  10.5787265
   1.8156904  10.9887600  68.3511019   1.8842147  11.1610329  67.4120283
   0.8757009  10.9051955  68.5113144  85.7836819  99.3833923  74.9769545
  84.8316479  99.2950821  74.9315262  86.0563374  99.5077038  74.0678692
  64.1134405  88.3586502  88.6728668  63.3127546  88.1938934  89.1708565
  64.1767025  89.3127823  88.6298847  12.4409223 103.1171799  83.3719730
  12.7371943 102.9070187  84.2575741  13.2065654 103.5062218  82.9492855
  24.6549249  31.0404968   9.8064238  24.7644830  30.2234101   9.3200105
  24.1409349  31.5992188   9.2234331  53.9059639  80.5104446  78.2263422
  52.9866171  80.3210735  78.0388069  54.3474340  80.4134560  77.3825884
  84.9161816  89.2702198  80.3794193  84.0188313  88.9460468  80.4562664
  85.3913307  88.5599327  79.9481916  93.0278111   6.5624076  77.9288673
  93.9570522   6.7855668  77.8745174  92.6149559   7.0871806  77.2430182
  79.4529438  24.1383433   1.9526564  79.6000814  24.4489765   2.8460145
  79.3593359  24.9371767   1.4336801 102.0158386  17.8022516   3.0027163
 101.4509201  18.0273688   2.2635189 101.5089512  17.1652913   3.5062742
  92.5736237   4.8657846  80.2500248  92.6512241   5.3201807  79.4111347
  93.3858585   4.3652573  80.3273296  34.5317435  35.4285192  16.2167621
  34.0549827  35.1318407  16.9919479  34.2298937  36.3263702  16.0789931
  23.0683231  85.0560570   1.6089129  22.8747392  84.2547417   1.1224476
  23.8883662  84.8671341   2.0650576  52.1175623   2.6407138   8.9656395
  51.6582441   1.9162665   8.5408616  51.7120409   3.4276867   8.6016899
  27.2454906  97.5087357  56.5482330  27.3264813  96.6901779  56.0587025
  26.5129256  97.3589325  57.1458435  40.9668732  55.7630491   8.8488394
  41.3006639  55.1077080   9.4614929  40.0168276  55.6480169   8.8691884
  80.5198956  52.6134109  89.4148922  80.8554745  51.7205048  89.4945145
  79.8267508  52.5510693  88.7577057  11.6868985  44.3418741  11.6600561
  11.7971313  43.3919668  11.6182029  10.9047210  44.4687986  12.1970117
   9.8539019  81.9970417  49.9596024  10.2861094  82.5257587  49.2888689
   9.0092838  82.4264050  50.0956106  14.8596573  82.5784397  75.5474615
  14.7978461  82.7398300  74.6059895  15.7751036  82.7581596  75.7616806
  25.7462645  45.8742285  18.9860022  26.2706637  45.0881147  18.8334787
  25.9410024  46.1203194  19.8902965  45.7545137  23.0730319  24.2113137
  44.8463345  23.1091332  23.9110851  46.1552477  22.3850179  23.6800098
  22.3315620  45.6000757   1.1594697  22.1026659  45.0072336   0.4436645
  22.2658825  45.0606871   1.9474891  73.7820530  12.2552943  82.3209190
  73.5797882  12.6429331  81.4694118  73.8063478  12.9990458  82.9229736
  83.1461048  37.5216484  13.1695676  83.9165115  37.3335004  13.7055659
  82.6707840  36.6915774  13.1336534  14.9234784  32.6477027  30.4822779
  15.4018784  33.2429528  29.9051785  14.2156231  33.1814289  30.8432603
  25.8055139  42.8220224  42.2753191  25.7554841  43.7728882  42.3732185
  25.3140211  42.6374626  41.4749432  55.6705144 102.4828418  91.0808501
  56.2541607 102.4741681  90.3222236  55.3745463 103.3908732  91.1449722
  12.7811730  25.1939845  74.8740196  12.8989458  24.2786574  75.1280594
  11.9570923  25.2032995  74.3871593  24.4735718  92.7147388  89.1595364
  24.6410680  92.0585346  89.8359776  23.5200930  92.7954102  89.1349697
  30.7066488  66.2024403  23.7137842  30.2782655  65.4048395  23.4030581
  30.6367064  66.8132591  22.9801345  34.0741587  33.3589220  29.9171662
  33.3025098  33.5824895  29.3967772  34.2173290  32.4281764  29.7455597
  74.0745640  20.1533270  45.6342697  73.8369989  19.8193419  44.7692585
  73.3512163  19.8858583  46.2012434  67.0544386  94.2817593  72.7821255
  67.3037958  93.8924503  71.9439793  67.5470734  93.7830067  73.4338856
  97.6191044  30.6822515  61.0998487  96.9168472  30.5257320  60.4685259
  98.3617020  30.9659195  60.5666351  16.7498589  77.5505590  90.7294369
  16.6709554  76.9064856  91.4331245  17.6284659  77.9151821  90.8358860
  73.0510521  85.3149223  75.0046730  73.8614082  84.8403645  75.1900005
  72.4243879  84.6332264  74.7621441  19.1919494  36.6247869  16.9105244
  18.5608089  36.4746165  17.6143289  19.3080699  35.7652950  16.5055239
 105.7218647  16.7585456  80.4100323 105.6693649  17.2637284  79.5986986
 105.8588600  15.8561027  80.1218319  61.5099478  66.9212675  80.5715466
  60.5907393  67.0142508  80.8218384  61.9962502  67.3188114  81.2938309
 102.4978542  46.8954134  60.8186007 103.4382439  46.7183256  60.8418274
 102.1437550  46.2319756  60.2264071  56.8655586 102.5140572  62.7719259
  56.0246801 102.3951626  62.3303127  57.0128345 101.6882324  63.2329702
   0.6233530  15.2789533  73.0954790   0.2932958  15.5536175  73.9509630
  -0.1569622  15.2251256  72.5437164  19.0984857  63.4009838  10.1439166
  19.6695518  62.7886391  10.6077564  19.6563029  64.1570330   9.9609917
  18.0344379  26.2259364   5.1592803  18.5891771  27.0049500   5.1188713
  17.7604425  26.1742520   6.0749698  46.0976410  93.2744598  76.3005066
  46.1393738  93.1662655  77.2506571  46.9951916  93.4860802  76.0438967
  12.5083017  66.9308615   9.1054577  12.2274303  66.3472795   8.4006363
  12.3067153  66.4507246   9.9086142  96.5979290  61.2020731  88.7059212
  96.9007778  61.0406351  87.8123569  96.9694519  62.0541096  88.9344692
  25.2918768   3.8080537   9.8872352  25.7196474   4.2383578   9.1469097
  25.0641632   4.5233810  10.4811084  40.2705765  84.5254326  71.2964678
  39.9646544  84.7387600  72.1780205  41.2204123  84.6359444  71.3392782
 105.5823898  65.4972887   8.5171634 105.7954597  64.7672701   7.9358673
 105.5120754  65.0997305   9.3850559  14.8084176  56.9036722  18.8537967
  14.6698058  55.9567070  18.8372517  14.1309059  57.2550344  18.2760823
 102.6541519   6.7550069  40.7527113 102.0752335   6.1105561  41.1598587
 102.4575996   6.6966116  39.8177266   0.2266805  61.5309763   5.0606197
  -0.4175789  61.5459108   4.3528494   0.4547288  60.6063986   5.1574481
  97.8600502  20.8539200  67.6283789  97.2628784  21.6007757  67.6710558
  98.0854893  20.6750417  68.5412979 100.9243298  19.3263400   9.4837564
 101.3232327  19.7978020   8.7524360 100.8570004  19.9786401  10.1810408
  72.5356817 102.8440094  42.0737028  72.5813627 102.3238659  42.8759432
  72.7512455 103.7339306  42.3526430  65.6113195  96.9785213  64.5303440
  66.3825893  96.7439556  65.0464344  65.3582430  96.1647701  64.0944672
 109.0329456  25.5164242  66.5544653 108.1789589  25.7853293  66.8930340
 108.9195728  24.5944095  66.3236713  44.1011858  80.7765770   6.1057460
  44.2926550  80.6719017   7.0377398  44.9374771  81.0324669   5.7166857
  85.6128216  35.7321072  82.4839687  85.7465267  36.6793227  82.5177193
  86.4701843  35.3774357  82.2486687   5.4790270  83.9928532  27.0497918
   4.8768404  84.1899204  26.3323188   5.9144902  84.8254490  27.2325277
  82.6655197 102.6434994  73.8690948  82.5254822 102.9890728  74.7506857
  83.5278130 102.9735565  73.6166334  58.2261419  31.1384034   2.6015046
  58.9411545  30.9521127   3.2100111  58.4289980  32.0061302   2.2520311
  89.6120548  77.8136587  89.5580959  90.0655079  77.4840879  88.7822151
  89.5097733  78.7513828  89.3954849 108.0948544  18.6276519  78.2300758
 108.4414482  17.8257072  77.8389359 107.1779346  18.4261489  78.4168482
  29.1725206  40.5295372   9.7057498  30.0331950  40.8703279   9.4621688
  28.5684395  40.9403467   9.0872389 101.3650799   2.3058265  89.3888760
 100.9492970   3.0224347  89.8682785 102.2844219   2.5638932  89.3222332
  23.7859368  81.6370583  14.5213091  23.5966492  82.4684429  14.9562919
  22.9280138  81.3030243  14.2593610  89.3310547  20.2967072  91.3194466
  90.1400375  19.7970235  91.4294624  88.9180946  20.2770090  92.1827602
 111.2436008  20.2028990  70.9942389 110.8723068  19.3206811  70.9861517
 112.1419430  20.0875235  70.6845617 110.2959728  72.7471924   3.2266465
 109.4055843  72.5854349   3.5385418 110.4930019  71.9974041   2.6651949
   3.2928791  71.0673044   0.4420838   3.8516368  70.4494331   0.9135231
   3.9040985  71.6858910   0.0420841   0.5937079  29.4600844  86.1145306
   0.3158785  30.3300214  86.4013290   0.4933732  29.4782710  85.1627731
   1.7716578  83.4623337  20.7868814   1.4343315  84.0086555  21.4967942
   1.7057385  82.5677776  21.1210322   9.2917717  91.8979168  25.0429106
   9.0860569  91.6559982  24.1399217  10.0308084  91.3371372  25.2786732
  22.4515867  28.7656474   9.8300016  22.5158453  27.8140545   9.9110860
  22.3454523  28.9194107   8.8912129   2.0924792  38.9622784   6.5582842
   2.7913669  39.4618654   6.9804215   2.1941760  39.1496086   5.6251192
  87.8484821  80.1668739  74.7544813  88.3736038  80.7890415  74.2511082
  86.9509315  80.3149605  74.4566393  29.0185285  82.2936630  86.2983036
  28.4383178  82.3195171  87.0591640  28.7992835  83.0828476  85.8029747
 103.1483841   0.7965318  83.6037636 103.5714149   0.0276036  83.9859009
 102.6016808   1.1441085  84.3084240  89.8176575  12.6781321  71.0369921
  90.5751896  12.7440536  71.6183949  89.3685627  13.5180151  71.1325884
  56.9455910  72.5970411  80.9597492  56.4080763  71.8122339  81.0664368
  56.3309288  73.3238554  81.0605812  66.6848564  53.6825275  81.4858150
  65.7928467  53.6491776  81.1402130  66.7075443  52.9999685  82.1565056
  76.3141012  13.5306549  59.9584913  76.6437149  13.2291472  60.8050632
  76.9949865  14.1189492  59.6321011  27.3479557   7.3750168   4.8736262
  27.9627848   7.2810131   4.1460413  27.7368283   6.8638706   5.5833727
  59.8026752 100.8182430  73.0870581  59.6193695 101.6321659  73.5562706
  59.5221663 100.1273823  73.6872721   7.4470979  18.2788312  77.2670269
   7.9734945  18.9343667  77.7246428   6.5859556  18.6860943  77.1732044
  43.2460499  62.9620552   4.5191202  42.6654482  63.4401751   5.1111794
  43.4173012  63.5754251   3.8045016  99.7274017  33.5601711  53.9511919
  99.4039631  34.1585088  54.6246958 100.3377533  34.0873075  53.4356022
  37.8398013  22.4203134  10.3941905  38.0007005  22.7472401   9.5090568
  37.6967812  23.2084107  10.9182906  19.9272227  37.5755954   5.2142090
  19.0630305  37.6915073   5.6091368  19.8715580  38.0358863   4.3767929
  39.5055127  84.2924023   3.8387695  40.4119110  84.0152073   3.7052020
  39.0674949  84.0849400   3.0133408 107.6624544  58.4580730   0.0856957
 107.7884824  59.1199086   0.7656368 108.1822450  58.7726037  -0.6539837
  72.1196795  88.7083435  74.3111515  73.0669689  88.5959053  74.3901348
  71.9038057  88.3298874  73.4588575 104.8483181  52.3079729  87.1764851
 105.3352261  52.5944901  87.9491806 104.4992828  53.1159115  86.8001366
  85.0525093   0.0400412  80.4777813  85.2432919   0.5135388  81.2874985
  84.7706699   0.7185666  79.8642683  37.8735089  49.4719696  18.8237715
  38.2457852  50.2365875  18.3844471  36.9331026  49.5337677  18.6562872
  76.0955143  83.0636597  55.1068020  76.2667513  83.9568520  55.4053307
  75.9952354  82.5568771  55.9126282  71.2565374 103.6123371  18.2313967
  72.0486641 103.7054253  17.7021468  70.7295322 102.9656410  17.7620673
  66.7426968  24.7305965  83.5614109  67.0061827  24.4654870  84.4426155
  65.8293486  24.4530129  83.4908295 110.5035686   0.2985440  64.3688631
 110.0868511   0.7683589  65.0912571 111.0577679  -0.3546367  64.7959995
  57.1405602  77.8515053  52.7322626  56.5993500  78.6034727  52.9728317
  57.4612617  78.0582857  51.8544102   1.6705349   6.2033045  77.4273348
   1.2946837   6.8798727  76.8641090   1.6438746   5.4074520  76.8961668
  49.5665979  76.3866186  28.1693459  48.6418438  76.1815071  28.3071685
  49.6224117  76.6321993  27.2458696  86.0036659  83.6094093  91.4573288
  85.5781460  84.2294979  90.8651638  85.3887367  82.8786373  91.5211296
 110.1358795  36.6770458  64.8975945 110.9285831  37.1739578  65.0999260
 110.2912140  35.8127689  65.2785492  25.0711966  60.0048780  16.0072494
  24.8064613  59.1277647  15.7300854  26.0132480  60.0346899  15.8402622
 102.8768539   5.5995518  79.4001341 102.3751163   5.2569079  80.1397800
 103.0195713   6.5215498  79.6141052  97.9843044  36.1724663  62.0313215
  98.2075596  36.2267375  62.9605389  97.0545673  36.3971829  61.9948530
 102.1010876  47.1923256  79.3089008 101.5010738  47.9363966  79.3595886
 102.2898865  46.9742775  80.2216148  79.5055199  98.1276798  79.7656631
  80.1084137  97.5485992  80.2319431  79.3820286  98.8706589  80.3563881
  29.6138549   7.7118611  41.6816759  29.7264099   6.9997597  41.0520124
  28.7114406   7.6206911  41.9875717  59.9813318  98.8552380  83.3796310
  59.4020128  99.4618988  82.9185486  60.8364010  99.2853069  83.3683681
  13.5906494  10.4729152  57.5629044  14.2585945   9.8179626  57.7656794
  13.7962818  11.2105012  58.1372833  27.4047937  61.5784453   1.6292748
  28.2906618  61.2360213   1.5100083  27.4645128  62.1310095   2.4085983
  53.8473272  60.5127621   2.8289616  53.7541962  60.9183502   3.6909682
  53.8819504  59.5732450   3.0087996  38.7325716  24.7080350  88.6524296
  37.9968786  24.2376161  89.0444660  39.3799591  24.7683716  89.3549156
  49.9095964  87.1252632  17.4474835  49.1449881  86.6360188  17.7512121
  49.5683193  87.7039242  16.7656386 108.4796388   0.3330487  71.5440083
 108.7825592  -0.5614024  71.3877439 109.2494161   0.7911081  71.8814468
 112.7990872  21.8524218  68.0481052 111.8892117  21.5622616  68.1126356
 112.8245162  22.6724601  68.5411787  83.6829662 105.6616402  37.6521587
  82.9361343 105.9844494  38.1564093  83.8197327 106.3247585  36.9755459
  45.7788754 105.3876305  47.2348356  46.5419626 105.6450653  46.7174768
  45.6799555 104.4506741  47.0658398  97.2131538  47.0277262  72.6762772
  97.0400333  46.2165976  72.1984386  97.4499893  47.6596975  71.9974852
   1.8278351 104.3183994  88.8259983   2.6148432 104.8317719  88.6435127
   1.5490119 103.9947701  87.9694080  24.6299982  32.5240803  24.8342228
  23.9110684  32.3237634  24.2348504  24.6153212  31.8110299  25.4726386
  94.3214130  16.2468731  88.2079124  94.6394634  16.8347263  88.8931179
  94.6120644  15.3776944  88.4841061 108.3605099  28.2221937  69.1771173
 108.5006809  28.0004954  70.0976801 109.1012096  27.8244543  68.7195063
  31.7397404  31.7097354  61.9098425  32.2439075  32.4427152  62.2630930
  31.9600940  30.9715772  62.4779987  50.7221699   9.5583200  11.6653121
  51.4351177   8.9428127  11.4947569  50.2783060   9.2032546  12.4354720
  31.8510246  23.3316517  78.7853813  31.4768553  24.2039990  78.9088297
  31.8171883  22.9313755  79.6542120  57.9009151  78.7643909  23.4665108
  58.3008385  79.3167830  24.1381955  57.1827126  79.2927456  23.1182933
  89.4243813  76.4061832  74.2637968  89.2535305  77.3456001  74.3311548
  89.5035744  76.2439442  73.3237743  16.2771297  11.3203430  75.1167583
  15.3600132  11.0662091  75.0140619  16.6899467  10.5641425  75.5338621
 106.6219139  23.3578277  71.9087696 106.7826462  23.0522895  71.0159969
 106.3430119  24.2674851  71.8040371   4.9408394  93.9555645   4.9507317
   4.9663833  94.0116215   3.9955157   5.8215988  93.6736488   5.1977491
  32.3269486  41.9960785  67.9949903  32.2750878  42.0400143  67.0402098
  32.5063777  41.0748291  68.1829691  20.4688025  23.6964989  63.5108185
  19.6239245  23.3284855  63.7696266  20.7592916  24.1913533  64.2769575
  29.2609310   9.4087487  84.6243191  29.6571898   9.1415560  85.4536724
  28.5943198  10.0491846  84.8727226  31.4317799  44.8668957  72.8187132
  31.5685749  44.3100500  72.0522690  32.2732711  44.8575354  73.2748270
  17.8264761  44.1496706  58.2786179  18.0356002  44.8473597  58.8996887
  18.1746185  44.4606161  57.4429464  54.7506332  57.5674963  17.8855228
  54.3256044  56.7391682  17.6631439  54.7458172  57.5898409  18.8424504
 107.2751522  18.2782102  59.7883844 106.7682838  19.0301859  59.4820356
 107.3693371  18.4205270  60.7302475  20.0785494  79.1717052  22.9669237
  20.1725435  79.4371128  23.8817763  19.4086802  79.7579670  22.6150680
  24.7288513   8.8860142  65.0213051  24.1252995   8.4993738  64.3869066
  24.1943932   9.5123851  65.5094099  13.0055022  28.2240796  82.5990963
  13.7845314  28.7762499  82.6658249  13.3392036  27.3720098  82.3182964
 107.0882702  53.3362055  43.0526972 106.9732094  53.4979010  43.9890957
 106.7791367  54.1381836  42.6313925  72.8158562 105.6052742  37.6796770
  73.2003777 105.8768734  38.5131097  72.9685299 106.3458874  37.0928073
  83.1991673  86.6283226  85.7009411  83.4287071  85.8293438  86.1754608
  82.8161621  87.2002697  86.3660908  26.0072970  34.2462778  74.5972967
  25.2943444  33.6203790  74.4701004  25.8055878  34.6731114  75.4299784
   9.0122563  54.5169258  71.5279627   8.2334286  54.2992878  71.0158157
   9.3345910  55.3303337  71.1397696   2.8818721  13.8664937  72.5289249
   3.3699968  13.5377002  73.2838154   1.9928867  13.9994347  72.8579569
   4.3373400  41.5199423  71.2177038   4.1494524  41.6734552  70.2917671
   3.4816080  41.5566492  71.6450310  19.5151317  36.6130209  88.9441586
  19.0379500  36.0747647  88.3126450  20.3985095  36.6808939  88.5818481
  14.6056950  23.3815837  28.2238388  15.1186335  23.1842804  27.4401307
  14.3914306  24.3109131  28.1421685  28.3653593  26.0431457  77.4584579
  28.7666607  26.8821168  77.6849937  28.4617209  25.9803772  76.5081930
   2.1367224  98.9301014  60.3119040   2.2767678  99.6348190  59.6794510
   1.4680076  98.3761883  59.9091196  20.7687235  42.9655361  43.5893440
  21.1816955  43.8277817  43.5422325  21.4026833  42.4215508  44.0566826
 101.0612965  15.0033617  40.3327894 100.3873062  14.5215154  40.8121586
 101.6918659  14.3336761  40.0679636  93.3890533  95.4427528  32.6101494
  94.2750168  95.1116562  32.4628854  92.8223991  94.8234940  32.1500921
  48.9976788  15.5308008  37.3556685  49.9477577  15.5506623  37.4704838
  48.6585665  15.2661324  38.2107615  31.5706134  10.8057618  35.1394582
  31.0413957  10.7323456  34.3452454  31.0700583  10.3341782  35.8052564
  38.4856415  78.9594984   7.4850905  39.2790675  78.4468555   7.3304838
  38.4480691  79.0617561   8.4360707  37.2248449  75.9180139  -0.2178112
  37.0906343  74.9785874  -0.0925270  37.7119531  76.1959098   0.5578980
  98.2510471   3.2455745  58.8544703  98.9280224   2.6279819  59.1310930
  97.5889015   2.7005562  58.4293222  29.1687815 106.0299233   2.4456578
  28.2366793 106.0536760   2.2292110  29.2001049 106.1946210   3.3880621
  68.4967518   3.6534593  13.6361015  67.8845119   4.1143447  13.0625331
  67.9561806   3.0124387  14.0977395  83.1874657  90.4025459  83.6669636
  83.5201931  89.5336819  83.4420109  82.2550297  90.3644753  83.4540081
  16.5125549  34.2306447  76.7821932  16.6848350  34.6229100  77.6381588
  17.3223853  33.7700987  76.5624142  30.0809908   6.6097915  73.6342573
  29.6168780   6.9402832  72.8650951  30.3950691   5.7447255  73.3711100
  86.5609264  25.8720469  35.1948762  86.7113400  26.7245746  34.7864604
  86.6214371  26.0427308  36.1347890   8.4372562  58.5132742  80.4579353
   8.1239843  59.1103649  79.7785378   9.1243780  58.0026245  80.0297546
  36.6066647  26.1676455  84.6689892  37.5334263  26.3388777  84.8363876
  36.1761951  26.3399029  85.5063915   0.4639927   9.3618262  71.8535042
   0.2428868   9.7623086  72.6943111   0.1619872   8.4569520  71.9324160
 104.7545147 100.4628563  44.7134399 104.0352058  99.9750710  44.3123245
 105.4971695  99.8595524  44.6868849  40.7327080  62.5089884  61.0850096
  40.6113386  61.5885782  61.3181353  40.6898403  62.9751921  61.9199038
  51.8010807  76.7878342  16.1415482  52.2617531  77.2729588  15.4569554
  51.1410713  77.4003124  16.4663315  33.9878654  45.7818985  53.9871407
  34.1442132  46.0279942  53.0754280  34.6327090  45.0970507  54.1643286
   3.7712944   3.8576570  82.0899963   3.7292126   3.2086295  81.3876915
   2.9282227   4.3091431  82.0497131  70.6066513  97.1813774  72.0359373
  70.4302788  96.9914627  71.1144924  71.0549021  98.0270576  72.0246458
  28.6723399  38.4153557  85.2254009  27.8616071  38.5229182  85.7227707
  29.2558122  39.0917897  85.5692482 106.1389256  75.9145832   6.7558986
 106.7897034  75.8263206   7.4522680 106.6501617  76.1323786   5.9765166
  41.8815374  91.3375664  15.4271412  42.7546644  91.0199547  15.1969159
  41.7917538  92.1606827  14.9468923  30.1170278  39.7750187  72.9798269
  29.4021058  39.9671054  73.5866404  30.2790380  38.8380265  73.0894947
  10.4201317   8.0565864  86.4651680  10.4808640   7.1127820  86.3175964
  10.4444993   8.4382635  85.5876923  59.4171476 104.7877026   8.2478708
  58.9541483 104.1259480   8.7616169  58.7247467 105.2584267   7.7839482
  18.5527921  40.5303764  50.3971720  18.7430930  40.0029659  49.6213770
  19.3656278  40.5151320  50.9024382   6.8435609  34.8307729  73.3804226
   7.7919507  34.9129343  73.2802296   6.5169591  35.7279897  73.3128643
   8.9849591  24.3259645  16.9822979   8.6556679  23.4398603  16.8319106
   9.2291808  24.3368721  17.9077530  32.9440737  36.6934943  76.2100935
  33.2551050  35.8038354  76.0427618  33.3111334  37.2139192  75.4954910
  35.3228140  43.6847448  86.9511795  36.2423062  43.4247112  87.0073128
  35.1321387  44.0761757  87.8036213  26.7607617  23.3884764  81.0001278
  27.3377490  24.0336657  80.5914116  27.2680807  22.5767875  80.9959221
  10.0725150  29.6266484  61.7187881  10.4459178  30.3948808  61.2867928
  10.6813896  29.4330788  62.4315500   7.0845157  27.3204541  84.3922138
   6.2706470  26.8544984  84.5838737   7.4784040  26.8282151  83.6719418
  48.3537912  36.4190984  59.9481630  48.2960939  36.3443494  58.9956331
  49.0602827  35.8214545  60.1929569  69.6087265  93.7838078  13.2604885
  68.7123442  93.5024357  13.4436905  70.1559210  93.0733681  13.5952735
  75.9618473  75.1083755   0.8750607  76.4042521  74.7650051   0.0987806
  75.0734425  75.3042936   0.5774322  84.8510170  87.1041393  70.3091955
  85.6828880  86.6777039  70.1033592  85.0840092  88.0184269  70.4704857
  75.1045847  49.0752745   1.4441971  75.0941515  48.7178707   2.3321073
  74.4233418  48.5872984   0.9815702  85.0915527  59.0125799  35.0445437
  85.7434177  58.5350418  34.5314527  85.3600883  59.9290419  34.9795747
  13.0945432  22.4457836  75.0900984  13.5674179  21.9325542  74.4349527
  13.1590486  21.9277477  75.8924150  52.1367788  80.4947758  14.8203135
  53.0884790  80.5922890  14.7887850  51.8561792  81.1032581  15.5038643
  18.8610709  56.1315346  50.3247643  18.4258664  56.7479563  49.7358227
  18.1987643  55.9208488  50.9829378  82.4896908  98.6019993  86.2387466
  82.9011250  99.3625355  86.6492844  83.2221413  98.0366039  85.9936523
  20.4607749  66.1775112  27.7853084  19.7766721  66.8466330  27.7626610
  19.9855661  65.3523302  27.8827047  89.8235893  36.3018346  81.7053604
  89.6620846  36.9919682  82.3486900  88.9524746  36.0561895  81.3938236
  46.1867094 102.5734806  13.4116697  45.8317614 102.2389889  14.2352974
  45.7933283 103.4408474  13.3160317  45.4939747  96.3049221  11.7875767
  46.1778069  96.8569756  11.4083207  44.9778461  96.0128117  11.0362375
  14.6849537  85.2609730   7.3617905  14.4642377  84.9682903   6.4775681
  13.8654828  85.1853752   7.8506500  26.5433764  32.5808501  63.7761497
  27.4419022  32.2769117  63.6476707  26.0078454  31.9616270  63.2801628
  17.1931219  60.5319309  78.1447887  16.3607895  60.9781456  78.3008337
  16.9565761  59.6089602  78.0531263  11.8142891  41.9694757  78.7905216
  11.2932825  42.2272968  78.0300522  11.1691606  41.8054533  79.4783688
   7.1073580   6.3955802  58.1204271   6.9943190   6.1313838  59.0334749
   7.9693836   6.8109828  58.0962563  15.7215357  60.4266644  54.9721861
  16.6333008  60.4107904  55.2631617  15.6628346  59.7196150  54.3296432
  74.2457867 104.2523098  65.8784389  74.0732479 103.5915565  65.2077150
  74.6217537 103.7602043  66.6083145 105.1265049  33.9911938  72.2408772
 106.0091114  34.1666389  71.9146109 104.6125793  34.7485185  71.9605589
 110.6341076 104.4039154  89.3819904 110.6216145 104.5471382  90.3283310
 110.8523273 105.2597904  89.0130901  33.7790179   2.2569196  73.0811310
  34.0692782   1.4799474  72.6033306  34.5881987   2.7167138  73.3048391
  89.7078705  20.7136488  56.7488050  88.7794399  20.4885173  56.6891479
  90.1284409  20.1752067  56.0784101  21.1645603   5.3585106  77.8987312
  21.7918754   5.3177917  78.6205673  21.4295673   6.1275691  77.3941994
  95.0633717  17.8157854  48.2747221  94.2204571  17.6891160  48.7102413
  95.5907917  18.3000839  48.9099550  29.6099472   8.4888488  57.6314354
  29.2587113   9.3023008  57.2692728  29.6363878   8.6391395  58.5763931
  22.5419450  72.8881168   1.6216296  23.4943247  72.9600048   1.6851515
  22.3620534  71.9584656   1.7616911  16.6119540  30.5443764  67.6152849
  17.1537697  29.7558856  67.6460695  17.0073545  31.1319780  68.2591915
   2.8730461  22.6404285  68.1653881   3.2391658  23.1770086  67.4623442
   2.0598340  22.2907948  67.8011465  17.5410438  21.6644669  77.8760815
  16.6517675  21.5808392  78.2202101  17.6355290  20.9259009  77.2745609
  28.8184953  24.4747519  71.7527914  29.4661593  23.8124323  71.9938278
  28.7453771  24.4030452  70.8010864  56.8937969  23.2988071  56.5351057
  57.6724195  22.8006554  56.2864590  56.5690279  22.8591871  57.3209095
  28.5927725  42.1774769  76.5452433  29.1511869  42.8929806  76.8493176
  28.2362676  42.4888563  75.7132721  93.4833622  95.7020855  85.2996445
  93.1381989  96.5821934  85.1496315  93.9008427  95.4642105  84.4717884
  38.5029531 103.3137894  53.3036757  38.5033989 102.3602962  53.3878851
  37.7491093 103.5994530  53.8197613  22.8268504  53.0593967   9.5505285
  23.7784457  52.9687071   9.6002734  22.6557207  53.9536810   9.8458260
  31.8660522  21.2520838  88.4452724  30.9324503  21.0925674  88.3068085
  32.3041487  20.6007767  87.8974628   6.3037807  23.1280255  76.8948317
   6.1027354  22.2022104  77.0314980   6.5522271  23.1855130  75.9722281
   8.7902027   5.9208041  39.7510219   9.4374406   5.5365831  40.3423691
   8.9997435   6.8547314  39.7407937  84.3034172  57.3878193   9.9922657
  83.3901405  57.6744509   9.9909902  84.2988586  56.5712309   9.4928688
  73.5536909  24.2393279  58.5564327  72.8466368  24.3752980  59.1871595
  73.4681225  23.3226061  58.2946491  10.3952634  17.8883147  67.4468279
  10.5308652  17.3633969  68.2356930   9.6451735  17.4806774  67.0138979
   4.0383047  51.2374640  38.8211060   4.8171544  51.3604546  38.2784295
   3.7091768  50.3729010  38.5752606 108.3141422  31.2206078  68.9367628
 108.1771660  30.2776361  69.0277147 107.8545570  31.6026139  69.6844816
   7.9715520  16.2617874  69.1562605   7.4367255  16.4256716  69.9330091
   8.8271147  16.6329300  69.3718958  11.2659542 105.3097222  65.7662678
  10.4029314 105.7236063  65.7553673  11.8238728 105.9059996  65.2668524
   7.7736837  10.1487207  86.9977665   6.9486511   9.6683431  86.9285583
   8.2082492  10.0006354  86.1578560   5.6685650  40.3416061  83.6028481
   5.4275471  40.0151062  82.7359295   5.9024733  39.5565033  84.0979576
   8.3534402  56.0480785  54.9791002   7.6926255  56.5640736  55.4409504
   7.8943664  55.7000828  54.2146540  95.8149052  39.9958563  58.4615612
  95.2601433  40.7083893  58.1441212  95.6411076  39.2711663  57.8608513
  22.5573945  37.2763109  69.3064404  22.6194763  37.8759503  68.5629272
  22.4627495  37.8482294  70.0681353  24.9403763  45.0051785  76.7348194
  24.0057206  44.9393034  76.9305468  25.0672364  44.4341946  75.9771156
  82.6694489  43.4286547  76.1105204  82.4418926  42.4996042  76.0743141
  82.1976948  43.8196325  75.3751183  58.3643627  76.1542082  24.2218041
  58.2743788  77.0420313  23.8755393  57.5204134  75.7401180  24.0414882
  27.7072573  36.8497968  62.6883745  27.0965409  36.4485049  63.3066177
  27.9264235  36.1462903  62.0774126  28.9168286  47.0126200  80.6197834
  29.5107436  46.3121748  80.3498268  28.1256914  46.8692970  80.1003742
 107.8528404 101.2816906  81.2920856 107.8363037 102.0015717  80.6614304
 108.7183571 101.3378334  81.6970062  43.6900616  17.1929169  58.0234241
  43.9794874  16.3043976  57.8160620  42.9824305  17.0726502  58.6566877
   4.2796203  17.6205182  77.3914003   5.0496501  17.2646987  76.9479132
   3.6086804  16.9462681  77.2843599  35.7625675  44.7800827  65.1768446
  35.5560327  43.8673210  65.3779364  35.4565907  44.9024963  64.2781639
  39.0320516  23.6256695  70.2991533  38.4831047  23.6918092  71.0805082
  39.8910165  23.3647323  70.6312990  26.3099885  32.2418094  71.5028811
  26.6679835  32.0952511  72.3784304  25.6707740  31.5391779  71.3847828
  21.9470668 102.9069138  17.3189974  22.7745581 102.7803421  16.8548083
  21.5565729 103.6774540  16.9066739  41.6454172  44.9282074  30.8608961
  42.5423002  45.0430012  30.5467987  41.6835451  44.1483879  31.4146638
   9.4134283  14.0260327  90.1363182   9.5803231  13.0886149  90.0381947
   9.6925789  14.4074237  89.3039417  39.4385648  36.9330430  72.5447512
  38.6648846  37.4267602  72.2729111  39.3414354  36.0816407  72.1182346
  89.2173195  51.4386702  81.7887497  88.5758972  51.5631866  82.4882507
  89.8643589  52.1295023  81.9313431  43.9434576  21.6303158  48.2547569
  44.7608232  21.7719412  47.7771711  43.3090687  22.1982837  47.8174973
  22.1416688   4.3858328  60.0138330  22.2906137   4.5461434  59.0819836
  21.2543631   4.7074997  60.1733732 106.8625641  31.9147944  92.0150471
 107.4493217  31.1710191  91.8780994 106.1570358  31.7830610  91.3817215
  23.0760121  61.4922476  85.7912922  23.2160473  62.1966982  85.1585388
  23.8437200  60.9285402  85.6959248  17.0527482  32.1617770  80.3695393
  16.8084061  33.0721116  80.2027416  16.9668055  32.0605564  81.3174820
   8.2690448  18.8263249  82.1447945   7.6809728  18.0719709  82.1080017
   7.7444434  19.5553517  81.8138218  31.0588360  12.6147616  51.0993338
  30.8472204  11.6993856  51.2824631  30.6216931  13.1055045  51.7952538
  38.6434650  30.1096225  79.4194698  38.4146523  29.3549466  79.9620008
  39.1485763  30.6781411  80.0007439  49.9387503  77.4193239  24.3669128
  50.2308083  76.6308832  24.8243999  49.5726347  77.9741287  25.0556660
  24.4489050  41.0872364  64.9069023  25.1312256  40.9433842  64.2511749
  24.7782135  40.6538391  65.6942749  70.2686501 101.4902973   5.2332777
  70.0147247 102.3668289   4.9444130  70.2065563 100.9509563   4.4449362
  55.8791018  82.2071838   3.6675924  55.1620054  81.5988541   3.8463104
  56.1727333  82.4921417   4.5329303  81.3139629  27.4180293  10.1615918
  80.6882286  27.9070783   9.6272522  82.0722485  27.2954273   9.5904505
  13.4302342  22.8755212  62.9301643  13.7771559  22.6721621  62.0615292
  12.8728735  23.6413836  62.7921915  86.3365841 103.2468319  55.4120445
  86.3374138 102.2919941  55.4792786  86.7392731 103.4274769  54.5626640
  11.8926024  26.5446997  85.6361294  12.5404656  25.9200120  85.9621143
  11.4022231  26.0575747  84.9739552  17.5932360  43.8492060  37.3269486
  17.7318144  44.7888374  37.4457455  17.6111698  43.7225008  36.3783407
  23.5347605  29.1528296  47.7809763  22.9369259  29.2219615  48.5253191
  24.4001675  29.3248701  48.1520653 105.4758072  37.8989816  56.1855030
 105.9713745  37.9190779  57.0041847 104.5613766  37.8329539  56.4606142
 108.1732750  46.3673019  66.1003065 107.3406601  46.3794279  66.5723658
 108.5117912  47.2582579  66.1888313  16.7075801  75.0414705   3.1620392
  16.8122542  75.7774925   2.5590962  17.0331049  74.2845726   2.6748285
  50.3950882  26.8611360  81.9329166  51.1359119  26.2597609  82.0088291
  50.7266331  27.6933575  82.2701359   3.4250593  26.9047308  88.9669991
   2.7983811  27.2050929  89.6252441   3.4011060  27.5791526  88.2881641
  77.5807095  63.1471109  28.4147263  78.2191896  63.1701279  29.1275024
  77.3836040  62.2175217  28.2996583  19.6352291  78.4972477  90.9624195
  20.1257110  79.2453098  90.6217480  19.7712135  77.8063393  90.3140450
  96.5141964   5.1826477  81.7711353  96.9708157   5.6377041  81.0635662
  95.9036160   4.5964646  81.3241291  92.2474670  50.1528311  82.8947830
  92.6991558  50.7011080  82.2532272  92.0677090  50.7410145  83.6282349
  21.5558553  56.8502808  13.6776066  20.6407809  57.0469379  13.8780987
  21.5346384  56.4893341  12.7913225  22.7333760  33.2962680  64.5007133
  23.5389042  33.4815931  64.9834299  22.0699072  33.8413978  64.9236488
 112.2585857  10.6940484  74.2118311 112.6786308  11.5515733  74.2785025
 111.3601352  10.8875871  73.9443207  62.5777054  90.2745056  55.8959913
  61.9023657  90.8516884  56.2523842  62.3982668  90.2476788  54.9561405
 103.6730003  27.0963597  18.1995499 102.7292061  26.9376993  18.2173014
 103.7688732  28.0034757  18.4896910  86.4486980   7.7636033  49.5271301
  86.5002537   8.2292181  48.6923981  86.4267540   6.8380201  49.2841339
  28.2044816  54.2200327   7.7799803  28.4135985  53.3771896   7.3773408
  28.7730217  54.2658854   8.5486740  29.7916532  34.9181604  86.1003208
  29.4884324  35.2904987  86.9283581  29.5087171  35.5474544  85.4368687
  43.2347488  83.0757236   9.1215730  42.7840805  83.4890556   8.3851695
  43.4170246  82.1852303   8.8215268  57.1486568  73.5071135  22.7208781
  56.6736937  72.8281641  23.2001233  56.6502714  73.6223507  21.9118285
  34.3221021  25.9374404  87.0867729  34.5215750  25.3304219  87.7995014
  33.7837505  25.4275131  86.4814854  37.5131226  47.3297644  69.6390390
  37.2391033  47.1676874  68.7363338  36.7125106  47.6028585  70.0870037
  41.4951181  76.4179039   1.8401487  42.2244692  76.1067677   1.3039841
  41.9127941  76.8492174   2.5856292  25.2732348  22.2382927  39.8427486
  24.7068286  22.6757932  39.2071319  25.9405136  22.8901100  40.0574732
  19.0441072   9.9593312  83.1250572  19.7634399   9.3286014  83.1562519
  18.8382971  10.1335096  84.0435028  62.1263933  98.3287239  13.8068950
  61.1756182  98.2743835  13.9033818  62.4069548  98.9033890  14.5191240
  31.4954615  25.5856824  20.6985641  31.3068700  26.3020301  20.0923347
  32.3668647  25.2809334  20.4455471  42.4862480  25.3090763  76.1323977
  41.7043447  25.2481651  76.6811705  42.1619701  25.6197023  75.2870655
  48.5784054  99.5241833  13.3975816  49.4395208  99.1842175  13.1543982
  48.2386351  98.8878536  14.0267634  14.8633373  45.9492350  52.6634026
  15.2803195  46.7573547  52.3645735  13.9381015  46.1768055  52.7549553
   1.5068309  41.7773104  86.3007355   1.7250817  42.2564459  87.1001244
   2.3147443  41.3200617  86.0674286  19.0874612  30.6197643  79.0102482
  18.5173726  29.8615170  79.1378832  18.5291684  31.3737988  79.1999149
  18.8854659  46.6613626  64.2950153  19.3067086  47.0716476  65.0502968
  19.5953262  46.5313578  63.6661816  94.5758247  62.4693441   2.7199718
  94.0965080  61.6602135   2.8982714  94.2898750  63.0731344   3.4054679
  11.5673041  38.5694695  80.4792023  12.4554360  38.9126182  80.3806973
  11.0028040  39.3376946  80.3931713  69.6837378 105.3656864  22.4501586
  69.0572691 104.9135590  23.0152678  70.4670668 104.8160553  22.4731040
  35.2773476  53.6182451  52.6861191  34.4020987  53.6635685  53.0709791
  35.8709598  53.7573290  53.4240341  69.0361166  84.4081211   9.1043001
  68.7334347  84.7584152   8.2665002  69.8787880  84.8371410   9.2528844
  44.5541620  32.8039527  65.8090162  43.9260483  32.1499085  66.1155033
  45.3909397  32.3397636  65.7852888  24.5435071  16.4243460  62.2535133
  23.6316800  16.1386216  62.3097658  24.9411273  16.1182940  63.0686569
  49.9307919  27.4141288  75.0212288  50.6542063  27.0086551  75.4992390
  49.1945934  27.3865342  75.6323576   7.9348552   3.1204456  84.8774719
   7.9773033   2.9564637  83.9353848   6.9992739   3.1146654  85.0796795
  44.7904968  80.0875568  20.6544662  43.9856005  80.5379772  20.9103775
  45.3867102  80.2258492  21.3904238  24.0025878  57.4339533  78.6580467
  23.0966854  57.6267147  78.8997412  24.0428996  56.4782524  78.6227894
  55.7195807 105.1087666  21.8436408  56.4479399 104.5312023  22.0719838
  56.1371374 105.8833694  21.4669943  42.4806452  40.4828358  65.3254318
  42.7058697  40.0431681  64.5055580  41.7072392  40.0165319  65.6426668
  48.6161852  59.6507454  15.9207046  47.7781439  59.2567825  15.6783855
  48.7286758  60.3732967  15.3030479  71.1576653  65.3304911   7.8117353
  71.0272264  64.5250654   8.3122391  72.1082306  65.4345083   7.7687961
  53.7039804  33.4504628  79.2118311  53.1210470  33.5812378  78.4639549
  53.5503674  32.5444341  79.4796848  34.8526263  14.4813383  82.4642658
  34.5025945  14.7959805  83.2977581  34.3005872  13.7321556  82.2401905
  71.3272190  80.2087402  18.6053383  71.3304472  81.1534309  18.4511757
  71.4938545  80.1185989  19.5436013  38.0780172  23.9413953  43.1793785
  37.3293614  23.7111807  42.6291561  38.8374376  23.8382506  42.6059008
  17.3647428  35.7975364  78.9126778  16.9905615  35.9535527  79.7797871
  17.3857343  36.6618276  78.5018301  41.3741159  31.2543154  86.2496281
  41.8270874  30.7772088  86.9449139  40.8342934  30.5924797  85.8174229
  39.5973611  29.9790025  88.6104584  38.8925385  30.4569745  89.0474892
  39.3158937  29.9190116  87.6975441  63.0058765  93.2438183  20.5610156
  63.7953711  93.1947708  20.0220156  62.8574610  94.1814613  20.6836367
  43.6240149  79.3239069   9.7149557  44.0249777  80.0736046   9.2751604
  44.2033720  79.1423512  10.4549634  26.8663025  14.4422269  36.0691977
  27.2977304  14.4561732  36.9235420  26.6213465  15.3536975  35.9096694
 102.1356297  87.6906300   2.6376560 102.0499039  88.3381748   1.9379629
 102.2393513  88.2110882   3.4342733  46.9203806  25.7019067  91.4354801
  46.6887188  25.0409794  90.7829952  46.4745522  26.4960146  91.1407566
  32.6589823  29.9264812  59.2319441  32.4863863  29.0082598  59.0238237
  33.2843280  29.8945212  59.9559307  51.7616367  35.8377290  73.7711382
  50.8853674  36.1982083  73.6353254  52.3509645  36.4946961  73.4005833
  17.2608578   4.8295033  56.5616083  17.9864335   4.2099410  56.4847040
  17.6578641   5.6848645  56.3973665  45.1631069   7.5470281  23.4640551
  44.6000671   8.0514163  24.0512586  45.6852293   8.2067615  23.0075717
 100.3797340 102.4643612  67.9648209 100.8106709 103.2743168  67.6918840
 101.0952091 101.8385029  68.0771828 103.3597374  88.0737782  83.0589294
 102.9718876  88.4023857  83.8699913 103.8043594  88.8327217  82.6813793
 110.9820461  46.1984301  48.9780092 110.6244946  45.6770992  49.6967602
 110.3155613  46.8648243  48.8108397   3.7493661  51.3839006  60.8837175
   3.3359322  52.0886087  60.3850269   3.3587593  50.5826235  60.5349779
  90.1906013  92.1382523  25.0741839  90.0085545  91.1989117  25.0470757
  89.4963169  92.5321198  24.5459247   5.0944400  12.4042201  86.4171886
   5.8719933  11.9988728  86.8010330   5.1681495  12.2237766  85.4800415
  10.6452191  80.9459591   2.2402187  10.8628976  81.7052937   1.6996026
   9.7457159  81.1054039   2.5260568  26.0877013  21.3224626  86.8866348
  25.7692885  20.4738092  86.5790081  25.9524274  21.2999725  87.8339577
  97.2535515  27.4110961  86.2132835  98.0338669  26.8576622  86.2455845
  97.5182247  28.2236958  86.6444016  88.7973118  74.8981190  78.6784410
  89.6412563  74.5436001  78.9582777  88.1570625  74.2467356  78.9648294
  20.1215720  41.4201784  41.5082169  20.5831385  42.0345592  42.0789385
  20.7985997  41.0837936  40.9210920  17.7103186   2.7278224  65.8122540
  17.9698288   3.5375488  65.3726768  18.0949569   2.0320296  65.2791882
   0.8940458  26.6787744  57.8094482   0.6644110  26.4155030  58.7006187
   0.4576031  26.0363531  57.2499418  56.6073179  90.4746342  18.1509960
  56.1930323  89.8161316  17.5933456  57.4679136  90.6155586  17.7563512
 110.0868225  25.3588700  57.2790480 110.8105278  24.7593641  57.4608898
 109.7531319  25.6005406  58.1430387   4.0836498  41.5197992  68.2944202
   3.1470889  41.4836407  68.1000519   4.4769707  41.8985796  67.5082541
  55.7012033  38.4214091  69.2788363  56.0422850  39.1733241  69.7631073
  56.4459467  38.1099749  68.7644434  43.4171247  28.8650465  45.6490183
  43.0190420  29.0119648  46.5070248  44.3594313  28.8786387  45.8166885
  -0.0909441   9.9817610  91.7539692   0.4541857  10.5439198  91.2034702
  -0.2126616  10.4821110  92.5608540  94.9531841  70.9955454  79.2986584
  95.7742977  70.5220079  79.1653633  95.0703812  71.8171597  78.8217402
  33.4065533  33.7029672  63.8213158  33.1548357  33.6060238  64.7397232
  34.2483282  34.1577172  63.8504028  65.7721138  75.8665419  34.8888564
  64.8203850  75.9176445  34.9773908  66.0177994  75.0885630  35.3894687
  59.6096420 100.0892639   9.2912930  59.6800470 101.0230827   9.4894207
  60.0598526  99.9877357   8.4527034  82.1890163 101.4766979   5.3109062
  82.4571419 101.7588997   6.1853826  82.6832294 102.0400620   4.7154111
  37.6125526 102.2943687  40.2905846  38.3378363 101.9375706  40.8033133
  37.9105926 102.2381210  39.3827081   7.2358108   2.7002400   7.7182955
   7.4609596   2.2977422   8.5570657   7.3576277   3.6386311   7.8625697
  28.0481482  50.3758287  63.7061977  27.7895904  49.7463655  64.3793631
  28.8006377  50.8327866  64.0819454  52.3909330  42.9434919  72.8981972
  52.8850555  43.1761742  72.1121120  51.5048838  42.7685547  72.5811052
  22.1329546  54.9448013  78.8339853  22.1636987  55.2146435  77.9161215
  22.6860762  54.1645622  78.8729095  20.3022265  37.5610828  51.1557484
  19.8543239  37.8127599  51.9633818  21.1714864  37.9546714  51.2313080
  39.7482491   8.8220632  35.7121897  40.3361416   9.5378166  35.9536672
  39.4924140   8.4301859  36.5471816  98.7105846  77.4139071  68.8816929
  98.3706474  77.5136328  67.9924679  99.6508789  77.5721312  68.7977982
  46.5309477  35.4966903  81.5885735  46.9841146  35.4683542  82.4312305
  47.0465803  36.1054850  81.0596848  20.3142881  41.8374062  68.5121393
  20.2527642  41.7021513  67.5665426  19.9127591  41.0561514  68.8924646
 110.0651550  29.3178701  79.6848679 109.1268063  29.2214775  79.8475075
 110.3703117  29.8999286  80.3808022  31.7107153  45.8637333  64.4093990
  31.7632198  45.3552198  65.2186537  31.8025589  46.7736673  64.6919155
  31.7621231  25.7783389  59.2729902  31.5122700  24.9536180  58.8562918
  32.7149868  25.7290006  59.3494844  25.0658536   2.2463325  66.7510748
  24.9232411   1.4558297  67.2716475  24.4093227   2.8652531  67.0706558
  30.2522135   2.1931162  22.1879768  29.9498463   2.1520369  23.0952358
  30.9478283   2.8505903  22.1968818  61.3237095  83.6617184  12.5152957
  61.6042805  84.1765881  11.7587125  61.1925554  84.3077564  13.2093215
  48.3450174  82.3803234   1.5305702  48.8761187  83.1323624   1.2686479
  47.4998283  82.7574444   1.7748496  47.8731060  11.8746817  54.4411182
  47.1426058  11.7783344  55.0521135  47.4634981  12.1419656  53.6183119
  13.5369909  97.0075703  49.2405844  13.7779427  97.2636986  50.1308489
  13.9999437  97.6292133  48.6789179  14.7011352  24.2873788  34.3789268
  14.2634046  23.7217402  35.0150681  14.0782380  24.9967313  34.2206526
  56.3193607  22.3341107  73.9150810  56.8734455  22.0278215  73.1971550
  56.5298557  21.7520189  74.6452141  27.8171492  53.7592268  55.5833006
  27.4582386  54.3539476  56.2418795  27.6347065  52.8842545  55.9258938
  80.0832272  84.5349216   2.8716111  80.7482910  83.8586617   2.7428353
  79.6758032  84.6370411   2.0114887  61.3411760 102.3343945  17.9224741
  62.0068264 102.7808762  17.3992288  61.7547274 102.2045040  18.7758994
  37.5251222  13.3317029  66.2091637  38.4501386  13.3186233  66.4549303
  37.2708464  12.4092305  66.1842728  32.6356578  42.7152395  78.7872458
  31.9183969  43.1119871  78.2929134  33.3371210  43.3657455  78.7553167
  83.1772041  67.3173094   5.8065826  82.3971272  67.8720140   5.8029860
  83.6107635  67.5083303   4.9748558  36.1449265  16.6432476  73.0619621
  35.2571535  16.4685583  72.7495956  36.2387419  16.0909796  73.8381290
  27.8494334  57.1886063  53.0438900  27.9699445  56.2528133  52.8826332
  26.8999028  57.3077631  53.0644894  83.0475998  19.4585133  90.1638889
  83.1239891  20.2842474  89.6858120  83.4496307  18.8094294  89.5865822
  23.8927960  36.0725141  63.4783316  23.9591956  35.6487083  62.6226377
  24.6674395  35.7734537  63.9544868  32.4042034  36.0582352  88.3053493
  31.5527606  36.4738345  88.4415531  32.7290416  36.4394355  87.4896240
  16.3229239  79.6159744  76.0153055  16.9169223  79.2162943  76.6506433
  15.7818842  80.2108765  76.5345383  15.5737758  41.6002226  83.3738613
  16.2780547  41.7140293  84.0120411  15.7968497  42.1994829  82.6615715
  37.7018738  83.6619473  25.8242202  37.4727583  84.1192341  26.6333127
  38.1123376  84.3324375  25.2781487 109.9014282  27.7615213  82.4717140
 109.3417835  28.2800746  81.8936729 109.6322346  26.8561220  82.3167419
  97.2609138 102.5885010   9.8799652  97.4769211 102.4885750  10.8071041
  98.1016731 102.7583694   9.4551140  67.2938967 104.8631001   5.1791912
  66.5140390 105.1021385   4.6782732  66.9824076 104.7755909   6.0800505
  28.9935398  37.2874522  56.4624071  28.2302856  37.3013592  55.8849287
  28.7069654  36.7865968  57.2261143   1.9649418  51.8483734  88.6325264
   2.2319590  52.3277092  87.8482056   2.4641886  51.0324907  88.5961723
  31.4352979  93.4189270   0.5739292  30.9485044  93.7379978   1.3338360
  32.0435132  94.1276930   0.3642449   6.5471607  71.8951654  54.4810009
   6.6708100  72.7878428  54.1584063   6.0520804  72.0005083  55.2934265
  22.8870344   4.7403735  84.3484402  22.4757504   3.9670512  83.9623737
  22.3836803   4.9066517  85.1454449 112.1040630  66.3728094  58.8962746
 112.0700073  67.1094608  58.2860136 111.3296986  66.4829111  59.4480658
  36.6704512  44.8085546  54.0546370  37.4013472  44.2097998  53.9012909
  36.9544530  45.3493977  54.7915697  70.6684732  59.0123940  20.3925943
  71.3915396  58.5203838  20.0035858  70.6620646  59.8438644  19.9184096
  10.4326427  24.4592571  60.5915117   9.7796720  24.1086984  59.9857283
  11.2632418  24.3753552  60.1232195  93.2253742  84.5267105  83.4870434
  93.7878704  84.4464970  84.2573643  92.3792267  84.1810703  83.7713051
  76.0987759  95.2236271   8.9129514  76.6762972  95.1469707   9.6724403
  76.6531086  95.5959320   8.2271457  34.9728990  23.7863255  48.8126612
  35.0207233  24.1460204  49.6984148  35.6780434  23.1399345  48.7782478
  63.4675980  89.7693634  39.0415263  64.1930962  89.4738960  38.4914517
  63.8452053  90.4611397  39.5847583 107.0734310  47.3577023  61.9084883
 106.9259357  47.3404503  60.9628773 108.0224419  47.4412870  62.0013857
  99.2662334  41.1563110  89.4071865  98.3194160  41.0157442  89.4049263
  99.3732452  42.0706844  89.1450787   6.8595219  36.6835117  31.9287777
   7.3164368  37.2920346  31.3481212   6.2118769  36.2573552  31.3673711
  42.1621943  14.7597325  84.0241909  42.1118355  14.4435251  83.1221390
  41.9361258  13.9980245  84.5579815   4.2445663  49.5545769  49.3900108
   4.9943358  48.9609146  49.3494987   4.1706711  49.7842169  50.3163147
  42.8506136  36.2579489  82.3561668  42.8308868  37.0273066  81.7870140
  43.4789276  35.6680036  81.9397259  23.5396743  22.4723673  86.9717598
  23.8749886  23.1347442  86.3675594  24.2927432  22.2409225  87.5154018
 102.4217987  30.5943871  55.9349155 102.9198933  30.2188110  56.6609144
 102.1867275  29.8423672  55.3913689  97.8575420   5.2044225   9.4260901
  98.7803173   4.9775425   9.5411456  97.4203014   4.3647671   9.2845684
  90.4504490  94.0897369  19.0413344  90.4988384  94.9917316  19.3580449
  91.2774754  93.6944199  19.3169713  32.9281116  14.5819640  74.8773527
  32.6851439  15.4531860  74.5640326  33.8529515  14.4938362  74.6468401
  42.8458309  49.9234486  48.5023451  42.4929810  49.1736555  48.0232382
  42.4308968  50.6842375  48.0958223  98.5293770   2.9649356   1.1701337
  98.9359379   3.8296664   1.1137664  97.5937080   3.1456020   1.2602486
  68.8145018 102.0093060   1.5443639  69.0860319 102.5684929   0.8164822
  67.8847265 101.8454266   1.3865897  52.4586153  23.1721401  69.4188690
  51.9781303  22.6489663  68.7772655  53.3728170  23.1102347  69.1420412
  45.0742292  40.1561689  51.4626265  45.4658365  39.7957230  50.6670427
  45.8011627  40.2132702  52.0827389  39.2918849  13.8503885  86.3294697
  38.8718796  13.3296335  85.6448936  38.5819960  14.0699875  86.9328499
 105.1784420  51.6914558  78.0769920 105.5083084  52.4715424  78.5229635
 105.9357643  51.1086130  78.0222702  81.2022972   5.5924559  17.4340451
  81.2341881   5.4123330  16.4944863  81.8193817   4.9697819  17.8183746
  59.8876190  30.0909543  59.8874283  60.2709341  30.1416779  59.0117979
  60.6293726  29.9051642  60.4631996  25.9698772  28.7149763  73.8450289
  25.7863498  28.9189172  74.7620630  26.5508413  29.4182110  73.5549021
  43.5095215  34.0509224  76.6073942  42.9332018  33.7657070  75.8983564
  43.9199162  33.2451439  76.9212914  23.4437180   1.1299714   0.7428119
  23.6526251   2.0080110   0.4240081  24.2902493   0.6861693   0.7943527
  71.4339828 103.9670849  67.4807453  71.6832590 103.2661057  66.8784761
  70.9087133 104.5646286  66.9485188  56.9826412  75.0653219  12.5672185
  57.5838041  75.4337549  13.2145917  56.9503641  75.7205248  11.8701589
  29.4947577  54.5271683  49.6974182  29.9128318  54.2306948  48.8889933
  28.9795113  55.2899265  49.4348240   5.4048264  82.6948738  76.7691660
   5.2646315  83.6332035  76.8961048   5.2856380  82.3149776  77.6396275
  38.4444094  45.8520079  85.5527973  37.5264835  46.0090303  85.3314590
  38.8573074  46.7130709  85.4870987  52.4539518  40.2600765  90.8133888
  53.0216694  40.9060812  91.2336254  51.8115044  40.0325537  91.4854908
  66.5616369  31.2931967  89.4021893  66.4066124  31.2308955  88.4596825
  67.1329689  30.5512500  89.6004963  57.6313686  78.3475924   6.5759778
  58.2568598  78.7115240   7.2025144  58.0046320  78.5521317   5.7186145
  89.5219994  66.8393421   3.2735759  89.9277306  67.5803280   2.8235054
  90.2598381  66.3142872   3.5836554  78.0227232  71.0533476   0.3402052
  77.4229622  70.5475092   0.8885187  78.5401249  71.5661716   0.9611262
  56.2150812  18.1763422  13.8357699  56.8310022  17.4452519  13.8845587
  56.3289642  18.5269165  12.9523897  63.5047674  89.8883343   1.7996384
  64.3000031  90.1395035   1.3298051  63.4386253  90.5217171   2.5142568
  19.1346765  37.5381017  72.4919987  19.8878014  38.1167531  72.3728561
  18.9685047  37.5522470  73.4345579  27.8520966  74.7079897  75.2492809
  28.3935547  73.9227390  75.1690388  27.0802760  74.4180584  75.7355595
  69.9756241  16.6538298  89.9413300  70.0489283  17.3342192  89.2720604
  70.7365179  16.0916352  89.7956944  48.1288290  33.7043810  55.3993607
  48.9039230  33.3066630  55.0027704  48.1973219  33.4872270  56.3290834
  51.0223532  81.1140060  18.9618325  50.7487059  81.4160156  19.8279369
  50.2324963  81.1786842  18.4250152  47.6440811  30.4265475  83.8381481
  46.8169022  30.3684783  84.3163204  47.4191236  30.8773828  83.0242920
  82.8169155  89.1918182  13.2293248  83.5387135  89.8187351  13.1822693
  82.6839924  88.9111996  12.3238862  75.7556152  94.6695518   1.9670220
  74.9556112  95.1580524   2.1609154  76.2993193  94.7811031   2.7468792
 112.1193755  53.7179184  67.7602863 112.3991877  52.8039360  67.8109884
 112.4359220  54.1107893  68.5737228  43.2763004  23.3990455  84.0763283
  43.5143185  22.7204442  84.7080517  43.7584591  23.1671214  83.2826233
  53.8300188   0.3796930  89.4696999  54.4106908   1.1379594  89.5335388
  53.8329382   0.1534146  88.5396290  76.8004942  84.4147396   9.1662961
  77.2970438  83.7410545   9.6308577  77.3046732  85.2176285   9.2982215
  62.0835114  73.5631418  26.4541793  62.7605963  73.4900093  27.1268201
  62.5507498  73.4333420  25.6289077   4.8056176  48.9839602  71.2878799
   5.2752817  48.2660770  70.8632803   3.9019954  48.6746407  71.3512802
  56.1064339  95.3036118  22.9743004  55.6554317  96.0907078  23.2797575
  56.2505436  95.4572773  22.0405698  24.1199899  21.2126327  81.5361595
  23.5870552  21.9906855  81.3723087  23.4927726  20.4895854  81.5419960
  74.3587542 104.3786049   4.3005621  75.0142193 103.8264656   4.7268799
  74.8326111 104.8050404   3.5865280  51.3624048  80.3276634  27.5122929
  51.1552382  80.7658386  28.3377099  52.0040655  80.9000492  27.0917320
  52.3887873  99.3121910  27.5857520  52.4340248 100.1946545  27.9537916
  52.3116779  99.4500828  26.6416812  59.5774031  79.7585249   8.0367786
  59.4669628  80.6987381   7.8952539  60.5252266  79.6328688   8.0822974
  13.7262022  97.3477936  90.6535244  13.2789910  97.4884224  89.8189831
  13.8297319  98.2256794  91.0206985  31.8062329  49.2020130  84.6525002
  32.3387218  48.7190962  85.2845383  32.1387362  48.9256811  83.7985039
  23.8655210  44.6042252  58.4597588  24.6701789  45.0472498  58.7289953
  23.8508821  43.7989616  58.9770317  46.6814613  86.4956760   5.1537180
  45.8374453  86.1553478   5.4504371  47.2632742  85.7356739   5.1643306
  33.9436054  48.1714249  58.8155651  34.1562939  47.7413273  59.6438217
  33.1145930  47.7758980  58.5462570  65.3828621  86.7386532  14.5178020
  64.9743414  87.2783756  15.1945877  66.1547518  86.3649750  14.9429846
  49.5019913  62.8420210   2.2705768  49.3641758  63.2107258   1.3980561
  49.2182159  61.9311285   2.1932335  53.9114952  68.5793543  89.1187572
  54.3762445  68.2957220  88.3314896  54.2602158  69.4518375  89.3015003
  27.3957491  42.0064926  88.2316303  27.4532437  42.6266718  87.5047874
  26.8642402  42.4560642  88.8886070  19.3936813  95.8810997  80.8206177
  20.0635648  96.1740685  80.2028370  18.8714850  96.6637611  80.9966373
   1.0945126  45.5957270  78.2882166   1.0342807  46.4629316  78.6889124
   1.4604503  45.7584763  77.4188280  16.6976655  59.7641420  71.1072636
  16.9689047  59.1311169  71.7720461  16.9388092  59.3562317  70.2755833
  25.4339314  45.9480715  73.5383272  24.7356772  46.1158276  72.9054499
  25.1856709  45.1232910  73.9558601 107.3838520  75.2934504  15.4973865
 106.4658642  75.3331947  15.7656074 107.5077629  76.0700035  14.9516332
   5.9038544  31.5344334  80.5950451   6.2734383  32.3559475  80.2713871
   5.1252860  31.7987204  81.0851574  34.3479466  27.9934692  64.6670675
  33.7565303  28.2723236  65.3661346  35.2151036  28.2717514  64.9617338
  88.7365913  39.6515512  80.3519249  89.6588898  39.7345710  80.5942154
  88.2609653  40.0550842  81.0779953  52.5318432  37.6934218  71.0091972
  52.0000792  36.9953871  70.6268215  53.2831049  37.2400355  71.3916588
  39.9306417  54.1223192  69.4516087  39.1437006  54.6202898  69.2302895
  39.6567893  53.2065392  69.4007254   6.5331227  30.9129095  60.1742029
   5.6467986  31.2622094  60.2672100   6.6737849  30.8652663  59.2285967
   8.6853242  31.2906599  91.2160587   8.4770417  32.1991968  91.4337921
   8.5219294  31.2263703  90.2750969  21.8976307  48.8629198  47.1766567
  21.8824649  47.9681015  46.8371010  22.4404788  48.8114071  47.9633522
   9.6010900  43.0498838  86.7786121   8.8857341  42.8910351  86.1627674
   9.4655234  42.4065447  87.4742889  38.6822724  77.5765991  44.5879889
  37.8112459  77.9715204  44.6277714  38.5223913  76.6358614  44.6633673
  10.3809726  35.7789874  53.5758734  11.3301706  35.7501388  53.4557772
  10.2623224  36.0983419  54.4703913  24.3412018   6.8460900   2.1058767
  24.2914748   7.0144194   1.1649068  24.5588040   7.6954216   2.4899563
  21.3312602  50.3144026  60.3009748  21.0886717  51.0156822  59.6963310
  22.2801590  50.2330399  60.2050638  43.2102871  62.6189470  51.4476156
  42.3359823  62.3394775  51.1760950  43.6396503  62.8857565  50.6347895
  37.4288821  25.1789379  80.2139378  36.6502309  24.6664357  80.4313660
  38.1162333  24.8200774  80.7751846 110.3807354  17.2926641  74.2243528
 110.0421619  17.7058697  75.0186157 111.1503315  17.8127766  73.9931822
  31.0349226  74.1755104  28.9907694  30.3400254  74.1669178  29.6490073
  30.7011127  73.6244297  28.2828784 105.7899189  18.6590254  69.3415689
 106.5791702  18.1202614  69.2863512 105.2693653  18.2510626  70.0335407
  97.9527664   2.1392167  68.1149197  97.8190327   1.6223261  68.9093828
  98.8066769   1.8574531  67.7867651   0.4427306  25.6472611  77.1763659
   1.3687211  25.8665395  77.0729733   0.1650152  26.1389303  77.9492617
  53.8126564  17.3178232  49.0814304  53.0753803  16.8516171  49.4755173
  53.4417152  18.1513095  48.7917137  36.6208696  28.8747334  70.4778242
  36.8435287  28.8814616  69.5469046  37.1190023  28.1409693  70.8379412
  56.5758276  43.0444765  70.4495811  57.0910025  43.0511427  69.6428680
  57.1485710  43.4462738  71.1028481  31.6341209  43.6245775  53.1614256
  31.8133307  44.5042610  53.4935045  31.4262366  43.7555408  52.2362995
  35.9739637  15.5171347  75.7570839  36.2717319  14.9858856  76.4955568
  35.4226208  16.1914384  76.1540318  42.4674749  44.7686672  78.2145643
  43.2837057  44.4955206  77.7957726  42.5673676  44.5043325  79.1290998
  44.3600893  31.2123322  69.4825649  44.0002584  31.8875194  70.0577831
  45.1807499  31.5848470  69.1601086  34.8027492 101.9732189  63.9040756
  35.0704074 102.7427673  63.4016991  34.4001603 102.3316956  64.6950531
  42.1530390  28.9085460  77.2853899  42.8483248  28.2956171  77.0463800
  41.3746071  28.5729170  76.8408298  34.4827676  25.4036474  75.4458475
  35.2555633  24.8395681  75.4746866  33.8175154  24.9239087  75.9393311
  50.7853603  36.4460659  91.8521976  50.5766201  37.3277116  91.5433884
  50.3164482  35.8651686  91.2531090  12.1455693  15.5779660  20.6098700
  13.0578125  15.3107917  20.7223964  12.1253228  16.0065567  19.7542226
   7.0983148  40.4541016  12.8227913   7.8837383  40.0347281  13.1741738
   6.3899785  40.1493216  13.3898926  70.2232504 103.6700630  11.7845774
  69.6537256 102.9853821  12.1354115  70.9387779 103.7338734  12.4171758
  86.7215633  91.0955715   4.4934589  87.0441341  90.3598499   3.9729911
  86.8851280  91.8648624   3.9478663  47.7081251  63.7503004  87.5895405
  47.2429705  62.9152489  87.6400375  47.2189283  64.2582178  86.9422913
  74.9965858  75.5426121  12.1516275  74.2825031  76.1286449  11.9008505
  74.8587036  75.3829384  13.0852890  48.4098673  42.8748465  80.2457523
  48.0129528  42.2769928  80.8792114  48.7237453  42.3055363  79.5431900
  51.3459063  76.9319010  21.0658050  51.8616438  77.5641203  20.5652618
  50.5414724  77.4009514  21.2874150  30.1727700  46.6727066  54.4219923
  31.0072064  46.4933014  54.8553085  29.5250344  46.1996746  54.9444056
  10.2165437  14.7755682  79.4724894  10.8407319  14.9333644  78.7641668
   9.3731362  15.0528431  79.1146946   1.8998493  44.7900200  90.4973507
   2.8034294  44.5473051  90.6995010   1.4288956  44.6678734  91.3216782
  23.3713651  49.7976446  64.3391848  23.5066390  50.1802731  65.2060938
  22.6008058  50.2496624  63.9954567  55.9502077  46.5262127  78.8431597
  56.0488701  46.8422794  77.9450512  55.1493835  46.0021734  78.8260365
  63.4604692  95.1162434  24.1738796  63.2484388  96.0457706  24.2591047
  64.1471291  95.0873184  23.5076237  28.8888121  57.4179554  71.2827206
  28.6831164  56.4831209  71.2805223  29.4041562  57.5516701  70.4872513
  86.9762325  84.8553276  40.8120251  87.9052544  84.6833038  40.9654617
  86.5471077  84.5985603  41.6282129  40.1084757  29.0969563  84.8524189
  39.3499064  29.6622396  84.7066116  39.7342181  28.2605457  85.1291561
 108.2325935   6.5243894  10.8205462 107.3355293   6.8466556  10.9079862
 108.1499863   5.7234913  10.3028882  71.8214226  21.7525554  55.2644491
  70.8900356  21.9697142  55.2245426  72.2439575  22.4068236  54.7080040
  47.1325541  91.1690807  88.7667656  47.1821833  90.5912113  88.0052948
  47.4069929  90.6207943  89.5018196  38.3503008  15.9061384  83.7793064
  38.7265563  15.5516458  84.5849133  38.0800343  15.1345730  83.2814407
  28.8267803  59.3164635  54.7577763  28.8917971  58.7077188  54.0219498
  28.2534289  60.0145149  54.4411898  15.9710097  45.0510216  24.9087000
  15.6279492  45.1654100  24.0224409  16.8721128  45.3701639  24.8597670
  96.1693859  63.1112671  19.2474771  97.0699406  63.1138659  19.5718455
  95.6299877  63.1168890  20.0382042  30.9762025  48.6506128  61.2348175
  31.7602515  48.4068441  61.7268324  30.8385801  47.9233694  60.6278515
   5.4380447  37.2266936  42.2963047   5.0303954  37.5327897  43.1064653
   5.0322843  36.3757181  42.1306753  66.3038445  20.7113338  74.2550993
  66.0978127  20.8845782  75.1736689  67.2182131  20.9781051  74.1602898
  63.4366369  91.3344669   3.9855346  64.2886257  91.7438984   4.1362512
  63.4537363  90.5416203   4.5215607  33.8708305  21.3790512  79.7979021
  34.1692781  20.5156398  79.5121050  32.9242444  21.3641715  79.6565485
  57.2419548  90.8538628   5.9289730  57.2259903  91.7289925   5.5415189
  57.1092081  90.2617264   5.1887113  14.3627799  34.8029590  62.3000765
  14.7372878  35.6675243  62.4689054  15.0446892  34.3368554  61.8163633
  32.0791459  47.0334768  78.8468218  31.6259336  46.7608595  78.0490065
  32.5748301  47.8100967  78.5872269  56.4698172  38.2129979  85.2010250
  55.8646679  37.6723146  85.7086563  56.2271881  38.0524158  84.2891216
  32.3632455  33.5363293  86.5783310  31.5105772  33.8947845  86.3319588
  32.5770879  33.9723611  87.4031830  56.0509253  40.3860521  71.0695648
  55.1029396  40.5175495  71.0534954  56.4131880  41.2164068  70.7605219
  31.4688349  31.2316895  52.8315401  30.8269763  31.4826155  53.4958363
  32.2880769  31.6279149  53.1283236  96.0767269  99.6463108  89.0412426
  96.7205811  99.6304131  89.7493649  95.2546787  99.3897915  89.4591713
  55.9747362  80.1637840   7.5895983  56.4461803  79.5523405   7.0238227
  56.0506630  81.0082817   7.1454155  34.0524793  15.6066084  54.5485210
  34.2184210  14.6700156  54.6557045  34.8220229  15.9344804  54.0831900
   6.6149628  25.7680845  66.9671345   7.2863716  25.1766610  67.3072243
   7.0384753  26.6263127  66.9493866  43.8465023  23.0003023  68.6836147
  44.5321798  22.4985218  68.2428217  44.3215561  23.6298132  69.2260838
  56.1161232 104.5357513  13.1337428  56.5257025 104.5871162  13.9973617
  55.2708530 104.1161919  13.2941055  80.0902462  16.0316503   0.2148990
  80.2630615  15.9118450   1.1487155  80.8926296  15.7382154  -0.2167477
  27.9593420  31.5123534  45.8135366  27.2864318  31.5562558  45.1342010
  28.6793041  32.0427656  45.4721403  86.4492989  83.0832291  14.6807206
  87.1239471  83.0743980  15.3596914  86.2333393  84.0091133  14.5696783
  12.7582026  50.1082802  81.1805820  12.6344299  49.7002411  82.0375633
  13.4938490  49.6337938  80.7933903  46.7794657  34.4400048  77.8023529
  45.9508705  34.4693160  78.2806826  47.3837662  33.9957714  78.3970928
  52.0976353  83.2105732  36.1864662  52.7080870  83.9080811  35.9476042
  52.2811127  82.5078106  35.5630088  43.2746172  23.5929322  55.6696749
  43.4647131  22.6563811  55.6152105  42.6284266  23.7466478  54.9804449
  47.0590115  40.7648087  84.3632793  47.4550104  40.9449530  85.2159023
  47.1059084  41.5990829  83.8963509  68.4319258  20.1873684  80.9142113
  67.7689409  19.5371270  81.1463070  68.1493139  20.5246925  80.0641727
  45.8239889  14.9375212  70.3369617  45.0338936  15.2538502  70.7750416
  46.5049791  15.5597508  70.5925274 111.9991970   5.5270684   7.9669708
 111.5034199   5.5610275   7.1488714 112.0056248   6.4313209   8.2808471
  94.8524761  76.3654995   5.0618207  94.8745155  77.2592211   4.7197574
  95.2921867  75.8417797   4.3920395  72.1800804  19.2025018  56.3833380
  71.9753790  20.0247860  55.9381628  73.1331825  19.2087209  56.4715624
  60.0058985  83.8644505   3.9781031  60.6155634  83.8502502   3.2403082
  60.0713730  84.7538471   4.3258291 101.9086647  69.8091078   5.7664436
 101.0457516  69.3949318   5.7583791 102.5023270  69.1321039   5.4416966
  73.9086819  91.1205864   5.2822006  74.4927692  90.3830147   5.4584658
  74.2643738  91.5238476   4.4903067  43.4978867  51.2598753  54.5415592
  44.0283632  52.0378065  54.3693638  44.1304970  50.5426359  54.5815325
  32.7580404  55.4588270  63.9527512  32.6914859  56.4118576  63.8933516
  31.9931817  55.1351929  63.4768486  20.8898950  14.0038097  73.5689211
  20.1647425  13.3833969  73.4949541  20.5378723  14.7221196  74.0946007
  30.8498120  93.9118862   6.2350136  29.9000263  94.0289974   6.2143624
  31.1470532  94.2135143   5.3765869  23.8891077  65.5788994  62.1861029
  22.9841709  65.3962612  61.9331884  24.1015649  66.3988543  61.7402744
   4.6447596  69.4740200  84.7548389   4.4160089  70.2621698  85.2475071
   4.0272290  69.4610023  84.0235901  36.4633656  48.4358931  80.8858585
  36.5343213  48.1196117  79.9852133  37.2836661  48.9043093  81.0405445
  65.5429697  51.6536379  85.4714870  65.5682278  52.2984600  86.1784554
  66.1699486  50.9812784  85.7380581  30.1354718  81.0755348  49.4888735
  30.4319549  80.1827621  49.3119574  30.8927894  81.6242504  49.2848969
  33.3205295  57.8694201  86.6342640  32.6066208  58.4753942  86.8326569
  32.8983188  57.1446657  86.1730671  26.3539553  97.1434593  33.6379790
  26.7345953  97.2355175  32.7645540  26.6003871  97.9488659  34.0927482
 112.3566818  56.6587162  39.8035288 112.5612640  57.3259020  40.4586935
 111.4464760  56.4208412  39.9800515  68.2115412  10.8990383  22.5487661
  68.5037899  10.2000105  23.1337309  68.9362907  11.0159945  21.9345260
  31.9088125  49.4691801  75.1528597  31.3881683  50.2021503  75.4813719
  32.4135542  49.8394680  74.4287395  41.9046736  97.1906662   6.0519677
  42.3476219  97.7698612   6.6720974  41.0527420  97.0174885   6.4525378
  27.3642969  48.7888670  31.4617038  27.9657316  48.4077644  30.8219624
  27.0299864  49.5781136  31.0356116 108.3577919 105.8279324  15.9194183
 107.5998688 105.7747746  15.3372157 108.4475327 104.9445915  16.2770295
  98.7834740  14.8178029  17.5342906  99.0643501  15.4506683  16.8733656
  99.2363167  14.0081728  17.2983623  37.5320935  47.3381853  78.6108494
  37.2925425  46.5375519  79.0775728  38.2519865  47.0749331  78.0375385
  98.3723259  83.0832195   3.7267247  99.2503738  83.4421444   3.5984862
  98.2343578  83.1201649   4.6732083  49.1805029  36.1107445  72.6523781
  48.3782721  36.5294313  72.9643965  49.1354752  36.1871505  71.6992950
  48.5983849  23.8862777  88.9966488  49.0745687  23.5859370  88.2225227
  49.1992664  24.4950867  89.4262123 103.8151550  13.5385418   7.9029453
 103.7897682  12.6405287   7.5725538 104.0281773  14.0700293   7.1358907
  38.7211514  49.7011662  79.9605894  39.2467928  50.3023195  79.4328117
  38.8421154  48.8480425  79.5437241  19.6168256  33.6369252  72.9978704
  20.4590821  34.0834641  72.9116249  18.9929557  34.2155719  72.5594759
  21.0586643  44.3268299  30.2002954  21.9728351  44.0976334  30.3675985
  20.5665827  43.8547134  30.8720064  37.8715396  31.0155797  86.2446594
  37.1865606  31.6558456  86.4372540  37.6906896  30.7337689  85.3479385
  31.8830585  23.0984998  27.2054648  32.1740198  22.8815794  28.0911946
  31.9926095  22.2858810  26.7116237  88.3242893  95.8993626   1.6088733
  88.7337017  96.7072487   1.9186221  88.2213593  95.3656578   2.3967785
  24.3142772  58.5105991  84.1009331  23.6244726  58.8499117  83.5306072
  24.7008348  57.7884102  83.6057091  26.4195228  42.4531889  69.2949581
  26.1331677  42.6261950  70.1917839  27.3693681  42.5688648  69.3202877
  74.1689253  96.3813305  11.7898238  73.8458061  95.6199455  12.2716129
  74.5877838  96.0125732  11.0121310   9.1727126  50.7093239   8.0766785
   8.9508897  50.9044600   7.1662128  10.1179969  50.5591488   8.0659908
  45.0314093  43.4694386  86.7616844  44.6696568  43.4761572  85.8755016
  45.9483767  43.7193775  86.6479683  18.3742058  37.6428342  84.4137001
  18.9286947  37.4343181  83.6618328  18.8148558  38.3780885  84.8396873
  44.7307110  77.7840710  52.7503967  44.3496370  78.6592484  52.6791143
  45.5709696  77.9235506  53.1871367  10.0983763   9.8860526  24.8242188
   9.5208418   9.9246466  25.5865812  10.1792955   8.9518309  24.6320891
  34.4405508  40.8924675  78.1143332  35.0075960  41.6200590  77.8587866
  33.5824752  41.2940741  78.2508993   6.0425472  42.6511765  60.6328249
   5.6671703  42.0396805  59.9992657   6.9581842  42.7385426  60.3678560
  52.1443272  91.3588428  49.4576311  52.3071909  92.1684742  49.9415779
  51.1957741  91.2389946  49.5036364  14.9453807  77.4936581  79.5485115
  14.1097605  77.8748083  79.8181391  15.5217683  78.2469320  79.4197130
  11.6363215  76.8390322  46.4241314  12.5272381  76.9879484  46.1073923
  11.7510200  76.5077972  47.3148394  46.6828775 100.3543663  11.7693377
  46.5094376 101.2038422  12.1749628  47.1485853  99.8581409  12.4424744
  12.5099432  58.8157511  89.7359467  11.5799642  59.0409565  89.7104263
  12.8288245  59.0147877  88.8556480  85.9666729  20.0936127   1.4623046
  85.3088188  19.6589267   2.0049894  85.4816246  20.3970504   0.6949148
  50.8527470  31.6494846  82.7318001  51.5422821  32.3113942  82.7832508
  51.2976217  30.8245635  82.9262924  39.4881177  54.9097300  86.5215874
  40.3511047  54.8347616  86.9288540  39.6255112  55.4925680  85.7748222
  25.3667855  32.1897149  90.3825760  26.0165620  32.7989149  90.0320053
  24.6141315  32.7403378  90.5983543  42.1748114  43.2658911  80.6485939
  41.4322042  42.8906107  80.1753807  42.5094461  42.5438833  81.1805248
  49.0214634  40.8151007  68.0750942  48.4587336  41.5894175  68.0760622
  48.7693357  40.3367710  67.2852468  51.4540529  52.0638180  84.9634933
  51.7048597  51.1700344  85.1969051  50.5001545  52.0334768  84.8900986
  44.3471050  52.1596003  87.6583385  43.6054850  51.9711637  87.0832539
  45.1012707  51.7772341  87.2097111  53.2535648  62.2217464  85.0750923
  52.5144148  61.9334459  85.6105995  53.8888597  61.5087080  85.1399803
  25.3251719  52.5300884  66.9390059  24.6852326  53.2361317  67.0296097
  24.8179960  51.7289019  67.0698023  85.4798985   1.6277164   9.8888564
  86.2577724   1.8099785   9.3616742  84.9958420   0.9744915   9.3836606
  57.7809954  87.0638657   7.7097613  57.9078341  87.9973316   7.5400776
  56.8473387  86.9175053   7.5578070  47.8199291  53.8300753  89.7976971
  47.5520372  53.0685663  90.3120613  48.1356096  53.4624910  88.9721966
  91.6668987  94.7259808  11.3548768  92.4698734  95.2404308  11.2723887
  91.9210148  93.9681149  11.8814611  52.2105694  75.9343481  42.9112959
  51.4767504  75.4508495  43.2907343  52.8951120  75.8936501  43.5791111
  18.9632075  48.6413719  90.8939634  19.6973650  48.8223221  91.4809089
  19.2800467  47.9416706  90.3227687  23.7791634  32.6304579  74.1659307
  23.8263869  32.2553897  75.0453186  23.5725570  31.8871713  73.5993004
  40.4499531  36.6155434  75.6396437  41.0774946  37.1434784  75.1459742
  40.4969931  35.7485676  75.2366877  86.2703896  55.8784389   3.7747839
  86.6383171  55.7711124   4.6519053  85.3739166  56.1778975   3.9260918
  50.5847120  60.5111265  81.2745667  50.3645468  61.2894964  81.7863178
  51.4827824  60.3018332  81.5312672  16.9988227  91.0028458   3.1038547
  17.7711058  90.5548859   2.7586806  16.5838277  90.3578663   3.6765790
  26.3746309  25.0906253  18.2726562  26.1603308  25.2647901  17.3561549
  25.8448458  25.7170773  18.7657261  66.9092274  92.6966476  12.3591363
  65.9822178  92.8686047  12.1938574  66.9761181  91.7419720  12.3778462
  37.1894455  81.3514233  84.1709328  37.5640631  82.2102165  84.3667889
  37.9398990  80.8157349  83.9138603  51.8714333  28.9427972  63.5564709
  52.2435617  29.1098499  64.4224072  50.9259796  29.0232325  63.6824942
 111.0593510  97.9546642  12.3081803 110.8577538  97.7117634  13.2118332
 111.6178036  98.7280750  12.3869562  49.8548746  44.3484402  85.6685257
  50.6949997  43.8897371  85.6643581  49.7624111  44.6869755  84.7779751
  19.7958386  53.1259298  61.5040207  20.3664899  53.8109779  61.8523073
  19.1124940  53.6009359  61.0311127  37.5381589  45.8333302  47.2248745
  38.1098008  46.4547586  47.6757526  38.1083059  45.4014826  46.5887403
  25.3151608  56.9016743  70.8702850  25.0573087  56.1401701  71.3897610
  26.2415361  56.7574024  70.6772900   8.5852993  47.4022579  57.8598595
   8.3671772  46.4704943  57.8817558   8.3889687  47.7150202  58.7429571
  34.9502325  57.5727892  65.2456856  35.4237747  58.3876705  65.4128790
  34.3470573  57.7879286  64.5342588   2.2416028  49.8991156  57.8870201
   1.9343999  50.7886744  58.0618000   1.9611943  49.7209358  56.9893265
  18.0813241  53.9883232  55.9238815  17.7314878  54.8746824  56.0144901
  17.6635408  53.4927702  56.6282368   7.8081304  78.5248470  45.1556349
   7.9931945  79.3839741  44.7763109   7.2319746  78.7095928  45.8973503
  28.7472272  23.9943218  64.4424391  28.4264302  24.3875003  63.6308193
  28.8389182  23.0637455  64.2378664  25.4289985  43.5916376  64.8660088
  25.2589989  42.7727032  65.3314924  25.6655598  43.3186340  63.9795876
  10.0042665  49.7215748  56.8240166  10.8534658  49.5708942  57.2392130
   9.4336045  49.0484047  57.1947098 105.3686905  33.6455846  50.4392624
 105.7897949  33.9601302  51.2392426 104.8719788  32.8758574  50.7167959
  22.6560307  60.9309721  70.0943947  22.2259164  60.8343935  69.2447424
  23.1091762  60.0987101  70.2294302  41.0806608  48.9251852  76.1892366
  40.8677197  48.0794096  76.5836430  41.6641855  49.3442965  76.8217564
 110.8551979 106.0711479  77.9762030 110.7129478 105.1961231  77.6152134
 111.6298294 105.9784222  78.5307980  21.9191289  44.5610857  56.5662766
  21.9235182  43.6046505  56.5281963  22.7410102  44.7872257  57.0017099
  85.1321793 102.7853680  34.1606164  84.2363739 102.8952503  34.4795108
  85.5707073 103.6043072  34.3913960  62.8843546  91.0739994  89.6135426
  62.2442770  91.4515018  89.0101814  62.4024391  90.3880882  90.0756073
   6.2610805   8.2803679  12.2438872   5.8475602   7.4172837  12.2260618
   5.7417399   8.8073659  11.6366065  31.9471598  43.5838461  75.5457830
  32.0965314  44.5060730  75.3374100  31.3001895  43.5993958  76.2510633
  34.0794754  25.6718850  62.8273726  33.7147737  26.3550973  63.3899069
  34.4492531  25.0324559  63.4361649  38.8063097  61.3606215  54.0746546
  38.9492178  60.4927588  54.4523048  38.4106040  61.8680048  54.7833204
  27.8159142 102.8666210  61.6205263  28.2863450 102.0330048  61.6245270
  28.5044670 103.5303974  61.6596127  49.7754335  98.2864666  85.2304649
  50.2172899  97.7056980  84.6110153  49.4285965  98.9952469  84.6886444
  77.8483057  84.0213585  30.2273822  77.3849583  84.8317146  30.0155997
  77.1666384  83.3493805  30.2300358 101.0425663  93.7097549  30.2239680
 100.2746677  93.4607792  29.7095919 101.7068577  93.0607700  29.9920988
  32.2975087  67.9342747  82.6160908  33.1214094  68.4178638  82.6757526
  32.0950055  67.6936674  83.5201645  23.0294967  47.2696638  50.8328152
  22.9274750  47.0430899  51.7571974  22.6539850  46.5262032  50.3611279
  17.2413814  49.4125509  84.3502617  16.8806303  49.0590525  85.1633549
  16.7387295  48.9826059  83.6583614 104.4348621   7.6245874   7.0623076
 105.1941490   8.2073122   7.0501906 104.5341206   7.0854986   6.2776029
  42.6930666  61.9128704  64.2597532  42.8493118  60.9703064  64.3179655
  43.3056068  62.2162580  63.5896921  35.1997280  61.4487553  40.8085108
  34.4431996  60.8746624  40.6888628  35.8925819  61.0438013  40.2867842
  69.7423601  26.6600227  58.1908751  69.5102024  25.9878087  58.8315487
  69.2710543  27.4408221  58.4814835  54.8321629  44.4643164  52.9664087
  54.6287060  44.3843460  53.8983107  54.1473866  45.0364208  52.6199865
  32.4535728  35.6603813  65.9464693  31.9325137  36.4560938  66.0540247
  33.3246255  35.8998823  66.2629175  31.6762352  38.7598085  51.6432619
  32.2869229  39.0399480  52.3250341  31.9597459  37.8739929  51.4170218
  76.5273905  84.5221424   6.2202871  76.4951754  85.4076290   5.8582073
  76.8877268  84.6359539   7.0997393 103.7291813   1.7292832  21.3324761
 104.6189594   2.0088907  21.1171865 103.1687546   2.2492203  20.7564378
  48.3887482  71.1160851  60.5390882  48.7096071  70.8838415  61.4104939
  47.6816511  70.4933643  60.3703928  41.6883755  51.4379454  56.6828156
  40.8681202  50.9698296  56.5270090  42.2693348  51.1431313  55.9815311
  69.4298506  86.8271255  15.6717598  69.7884750  87.5397491  15.1428151
  69.1357422  87.2516155  16.4776957  41.2121677   1.2518182   1.7922451
  41.8530607   1.9409423   1.6173352  40.7543707   1.1336464   0.9599654
  44.4995165  47.0814991  88.2117939  43.7001705  46.8137217  87.7583885
  45.0957108  47.3449087  87.5107956  13.1188810  21.6682768  33.6641836
  12.7683604  22.4850512  34.0194988  12.3443413  21.1463332  33.4546709
  40.0382423  68.7495041  41.9984722  40.0456238  67.9501104  42.5249195
  40.9631205  68.9548302  41.8617964  61.2594461  26.8277550  83.9488888
  61.9987583  26.5795708  83.3938599  60.9351110  25.9987116  84.3006420
   1.1594847  48.1840849  14.5756698   0.8744571  48.0679178  15.4820335
   1.4895339  49.0819359  14.5415902  19.2492735  19.6827698   5.4990655
  20.1893473  19.5832419   5.3487802  19.1850746  20.0463676   6.3821888
  43.4152317   1.2209745   9.6063620  44.1796589   1.7970285   9.6132261
  42.9633284   1.4324056   8.7894720  74.7514105  67.1159410  81.5424061
  74.5960951  68.0568457  81.4598656  75.3696871  67.0380831  82.2689819
  46.5708351  86.4990139  62.7164698  45.8824968  87.1571159  62.6198769
  46.1337709  85.7540512  63.1290674  46.7857170  48.3224440  80.8883286
  47.1475506  49.1126347  80.4871941  46.4801073  47.7969170  80.1489639
  65.0476599  76.3199997  83.9052391  64.1471815  76.3884544  83.5879326
  65.5076265  77.0427942  83.4783554  62.4250507  76.4504337  69.0651178
  62.2867393  75.5332899  68.8285732  62.7603340  76.8560600  68.2655668
  63.4395266  70.5102491  73.4491825  64.0194368  69.8839855  73.8824606
  63.5535145  71.3228559  73.9420366  53.5703564  30.0802827  87.3533249
  54.4767046  29.9843216  87.0608330  53.3043575  30.9412241  87.0304394
  72.8114033  97.8230286  23.5883999  73.0573273  98.4698105  24.2497826
  73.5877657  97.7395058  23.0347633  58.2591772  68.6722279  79.0458298
  58.2925653  68.7260485  80.0009346  59.1766834  68.6815310  78.7731981
  96.8150997  98.8960648  10.1393545  96.1855507  99.6146297  10.0796485
  96.3539505  98.1424046   9.7711718  48.4853220  80.7213402  56.4200878
  48.8521481  81.6031742  56.4836073  49.2028379  80.1874542  56.0789585
  28.2104778  21.2931037  17.6055980  28.6009145  21.0159183  16.7767680
  27.2672462  21.2091899  17.4659443  57.6088142  79.6194315  67.3538113
  57.9900885  80.0132179  68.1385374  57.8951168  78.7064457  67.3807001
  65.9740686  70.4026937  90.0561714  65.8671379  70.1316357  90.9679413
  66.0742807  71.3536596  90.0991917  44.1279697  39.9855566   5.8764279
  43.4357643  40.0702715   5.2207524  44.1961145  39.0436172   6.0324395
  65.6877995  86.8624115  76.6516924  65.0086260  87.4769688  76.3737249
  65.7802200  87.0167351  77.5918388  36.5972233  66.8512297  80.5775356
  37.1633220  66.1085463  80.7877350  36.3497138  67.2122002  81.4288044
  18.2929635  53.9407587   9.6827030  18.1306720  54.7870016   9.2658508
  19.0977049  53.6226273   9.2735416  75.2057648  53.7770319  84.6523762
  76.1116600  53.7308550  84.9580765  75.2738667  54.0768433  83.7458897
  44.7567558 100.4937267  15.7336366  45.7091951 100.3991890  15.7458937
  44.4432259  99.7031116  15.2944720  77.5357723  89.4865894  91.2863159
  76.8473434  89.9087334  90.7724190  78.2616043  89.3789196  90.6716442
  75.1532936  67.2623062  85.8748913  75.9704208  67.3364687  85.3819084
  75.4306316  67.0711946  86.7708874  89.1514587  81.0067654  85.1937008
  89.7282887  81.0733891  85.9546566  88.4853268  80.3701973  85.4531097
  55.4117393  91.8749523  75.2490664  54.5086145  91.6634846  75.4854536
  55.4691792  91.6704655  74.3157291  38.1826925  11.3214016  75.1887035
  37.2929597  11.0029995  75.0362921  38.3259153  11.9707823  74.5002079
  56.9499063  52.7700996  84.9490643  56.0041142  52.7938318  84.8036385
  57.3277664  52.7794504  84.0696526  50.2623510  82.5465012  89.5598030
  51.1080503  82.6553917  89.1248703  49.7121143  83.2368755  89.1898727
  64.0916300  69.4224501  77.2715235  64.8025370  69.3826389  76.6317892
  64.2497969  70.2331781  77.7551985  45.2580452  98.0878639  67.9350615
  45.4845285  98.6877537  67.2243834  44.9598217  98.6579227  68.6438131
  94.4780350  75.7761049  90.0471497  93.7592697  75.3086519  90.4726982
  95.2116108  75.6932545  90.6564426 105.3519726  16.8055725  26.2838364
 105.0645733  17.5034642  26.8725467 105.9406567  16.2704694  26.8161392
  24.2315459   3.4889299  22.9102039  23.3502173   3.2544205  23.2008862
  24.7132230   3.6595803  23.7195826   7.0257235  13.5960019  55.2437305
   7.9181445  13.8332355  55.4957914   6.4732879  14.2453432  55.6789351
  31.3999104  77.9699278  57.6154232  32.0429444  77.4611902  58.1093168
  31.5508652  78.8752317  57.8872013   2.1321028  37.7183294   4.0942326
   1.8743545  36.7969990   4.0634519   3.0375004  37.7035093   4.4045025
  41.5894365  49.1423798  10.2995920  42.4329996  49.2695761   9.8654795
  41.8062925  49.0755129  11.2295032  69.3142319  51.7839861  88.0159760
  68.3592892  51.8365955  88.0553055  69.4942904  50.8755732  87.7738953
  99.0446186  68.6006546  80.7778263  98.6634350  67.9572392  81.3752842
  99.7185802  69.0395975  81.2968063  77.8307009  73.4841108  61.7699957
  77.8199434  73.4435177  62.7262735  77.0191622  73.9367676  61.5403366
  25.8128262  56.7818213   0.9368341  25.7809448  57.1728849   0.0637450
  24.9813366  57.0299530   1.3409221  51.9129467  57.3694134  86.4350986
  51.9933605  57.3823166  87.3888206  51.8638611  56.4400053  86.2114239
  75.3589821  57.1427345  79.7260237  76.1782980  57.5446081  79.4371414
  75.5721045  56.2159157  79.8347616  54.4000435  72.3699188  66.2885618
  54.7636127  71.5190887  66.0433435  54.0487480  72.7246428  65.4718590
  27.6699615  32.8671336  25.2001524  26.7943621  32.7442765  24.8334599
  28.1517148  32.0826983  24.9378395  56.7649508  72.0193624  68.8360739
  56.4386845  72.8811502  68.5770273  57.4835110  71.8428469  68.2288313
  16.6848826  87.1730423  16.5374398  17.1515048  86.6334438  17.1756637
  17.0468795  86.9100952  15.6912434  14.1504240   7.9920930  12.4428415
  13.6938834   8.0834019  13.2791817  13.4511185   7.8755730  11.7997026
  54.7122422 105.0132115  91.3724892  54.3959823 104.7737963  92.2436326
  54.0567925 104.6561415  90.7732271  45.7232618  99.9295235  86.0737133
  45.1779461  99.8900414  86.8593979  46.3089228  99.1763020  86.1505604
  26.7085910  30.5168653   1.0136572  27.6218963  30.2306509   0.9999254
  26.5109468  30.7309413   0.1018789  36.3723278  10.0213242   9.7854882
  36.9150090  10.2370858  10.5438900  35.5902123   9.6146750  10.1585340
  57.0886803  81.1155891  64.9752378  57.1192122  80.6865025  65.8303261
  56.6978359  80.4633713  64.3937922   6.1696190  12.9210985  32.2699952
   5.9230620  12.5634408  33.1229448   5.3528434  13.2669353  31.9101262
  55.4284811  83.5958767  90.3496647  55.6661463  82.6784611  90.4841423
  54.6815443  83.7375259  90.9312534  55.8098650  25.6098461   1.9555400
  55.3022480  26.3822722   1.7067179  56.6453409  25.7155108   1.5005092
  11.5346324  24.2846608  13.6893904  12.3820984  24.2733526  14.1342545
  11.1718798  23.4122634  13.8429070  46.6342020  81.9188213  87.9589367
  46.1601210  82.5319576  88.5206699  47.3042488  82.4533463  87.5328541
  46.8649960  82.7477646  61.7565489  47.6309109  82.6340008  62.3192739
  46.2389469  83.2281303  62.2983551  42.9877710  98.2036781  92.1352005
  43.6116648  98.4979916  91.4716053  42.1308899  98.4392929  91.7795658
   8.0106431  21.0748696  30.5548716   7.9903495  21.0523629  29.5981526
   8.5029948  21.8682814  30.7653952  32.1458507  35.1113200  11.1458588
  31.5013552  34.6517491  10.6076622  32.0907879  36.0229635  10.8593166
 101.1752701  98.0153942  73.0894136 101.5854073  98.8710022  72.9630804
 101.8882084  97.4493980  73.3853912  66.7976379  75.0493765  85.6193638
  66.1268187  75.3977633  85.0321198  66.8643713  75.6991816  86.3190365
  54.9053192  91.4150333  60.8098173  54.1114187  90.9231377  61.0195637
  54.8305321  92.2202110  61.3220072  35.6218410  25.6215358   8.6108726
  35.6201816  26.4870334   9.0197039  34.9492383  25.1317978   9.0841508
  39.6517634  39.8881102   2.3739083  40.2554846  39.2187619   2.6959765
  39.6881986  39.8049879   1.4210206  39.9847651  84.5427227  87.3960114
  39.0946102  84.4654751  87.7393627  40.2262783  85.4544067  87.5595284
  16.3732922   2.6159683  75.1124907  17.0475829   1.9491976  75.2428055
  15.5723929   2.1179168  74.9489784  14.1257632  26.2501001   3.3179483
  14.8294151  26.8170118   3.0021694  14.5627558  25.4288340   3.5433170
  71.8239975  94.0429592  71.9182682  72.5270081  94.1980743  72.5490952
  72.0738506  94.5565319  71.1501169   2.8951225  39.8391771  27.0061493
   2.6411217  40.6227303  27.4937606   3.6243004  39.4719911  27.5058556
  72.3652649  91.2309361  60.7515383  73.2718468  91.3548851  60.4705048
  71.9722652  90.6945801  60.0629854  16.3510609  27.7773976   2.2629353
  16.3726592  27.6819777   1.3107482  17.2715175  27.7687502   2.5254545
  35.8626699   7.5512058   7.9635543  34.9149966   7.5109613   7.8349918
  36.0191035   8.4257013   8.3199501  61.8346310  27.4090719  10.7529938
  62.2757483  26.7339420  11.2685966  62.3760319  27.5039101   9.9693370
  84.3450642  53.7790489  88.8172245  83.6275673  53.8419628  89.4476700
  84.1974831  54.5066261  88.2130051  14.8992860  13.9986706  10.8410776
  15.0726402  14.1940475  11.7619514  14.6912467  13.0644238  10.8294952
  78.8593864  88.4507847  76.6150665  79.2496777  89.2345810  76.2283182
  78.3149385  88.0853176  75.9177542   2.0771837  50.5319357   2.6579803
   1.8768939  50.3526974   1.7392910   3.0310249  50.6074142   2.6848534
  72.4082136  66.2710047  85.4060173  73.1485081  66.8592501  85.5548954
  72.3273468  66.2241316  84.4533920  56.0179281  79.2203808  82.8968716
  55.6057167  79.3787766  82.0476151  56.5034008  78.4039068  82.7789021
  31.3799882  74.1899109  18.8924611  31.1387420  74.0257025  19.8040903
  32.2219467  74.6421862  18.9452505  32.5496292  87.6925850  82.0293617
  31.7876053  88.2347584  82.2333050  33.2926822  88.1805801  82.3842716
 106.5883064  59.4912672   6.9784242 106.8568611  60.2492619   7.4976087
 107.0028305  59.6256876   6.1261737  32.4735856  33.1190443  41.4781189
  32.2740126  33.7530923  40.7893610  32.3574901  33.6067128  42.2935534
  71.2404919  37.8971887  17.5031888  71.0873652  38.6850858  18.0247235
  70.9134769  38.1196404  16.6315198  65.0684547  99.6999264  64.4215870
  65.2326822  98.7958336  64.6896887  65.3619671  99.7368622  63.5112476
  97.4761105   8.4685689  90.8700466  97.1289539   7.7423215  91.3880062
  98.3601475   8.6047542  91.2108994  73.3608007  79.3830538  55.6173134
  73.7552881  80.2413654  55.7719564  73.3629656  78.9602375  56.4760637
  55.5398655  77.2207117  87.3466969  56.4907932  77.2047234  87.2385025
  55.3017044  76.3076496  87.5074196  24.3739295  38.8608027   2.7070743
  24.0303707  38.2681394   3.3756161  23.6866474  38.8955283   2.0417413
  51.4564371  55.0590992   7.9636276  51.3732004  55.6435108   8.7171292
  50.7914495  55.3664351   7.3475385  46.3568926  68.3782101   3.0101192
  46.8616915  69.1838646   2.8990653  45.8753061  68.2821369   2.1884905
  89.3524456  51.3605928  10.7145321  88.6617088  51.0345364  10.1376426
  88.9225769  51.4747429  11.5621257   6.4625973   7.1496314  68.5197830
   6.3668054   6.4168113  69.1280842   7.3755014   7.1068847  68.2351589
  31.3575721  82.5527287  56.7703867  30.4207253  82.4415874  56.9322491
  31.4242530  83.3930492  56.3169193  49.4262218  77.5241232  74.3914080
  50.0815535  77.9796743  74.9198389  49.8756981  76.7400455  74.0760803
  55.2188206  74.6182680  80.3172207  54.6942759  75.2561474  80.8011532
  55.1998425  74.9297619  79.4123220  67.8872871  76.7210817  74.3735456
  67.7957439  77.6550865  74.1851664  68.8198566  76.5425825  74.2523527
 109.1881657  38.6434436  13.0302167 109.9411106  39.2141151  13.1839359
 109.1701889  38.5210919  12.0810390   3.2359499  43.1306410  12.2307003
   3.3786163  44.0770912  12.2203958   3.8926753  42.7960634  12.8414392
  20.8264327  30.6184673  25.3940582  20.7437158  29.6859145  25.1947212
  21.2231231  30.9968495  24.6093965  82.9661179 101.4446354  78.0721855
  83.2754135 100.6396675  77.6567411  82.7791214 101.1911011  78.9760590
  97.2607803  82.0970821  85.7273006  97.2378731  81.4116478  85.0595570
  96.3407612  82.3101807  85.8834553  38.8513064  18.4751272  35.3477216
  39.1082311  18.9874172  36.1143899  39.6528721  18.0252051  35.0807071
  28.0208349  26.0676527  13.7155366  28.5409641  25.2987599  13.4820855
  28.5753632  26.8119693  13.4816003  24.7993302  14.4604111  -0.0107309
  24.5962691  15.3774333  -0.1953078  24.0318918  14.1351962   0.4599111
   1.3859554  32.2385788   4.9373111   2.0484671  31.7149282   4.4866452
   1.6660771  33.1443191   4.8054034  67.5191927  75.7741165  46.9818354
  67.5236368  76.0882759  46.0776663  68.4275961  75.5261278  47.1536970
  21.3142443  11.2665689  18.2096648  21.8727231  11.8275952  17.6715374
  21.3732791  11.6418719  19.0882409  32.1716642  50.9468126   7.5124544
  32.5159717  51.8020964   7.2552156  32.4813747  50.3493500   6.8317550
   8.7282360  27.2791028  18.6638391   8.7320876  28.1350064  19.0923774
   7.9346085  27.2827530  18.1287003  44.5625544  86.6677666  74.6591520
  44.2258358  87.0669842  75.4613209  44.3245173  85.7436085  74.7333622
  76.2220287  97.1451569  75.3118801  75.4257774  96.6364098  75.1589441
  76.2497520  97.2671223  76.2608719  58.4715652  66.3732576  87.3691845
  59.2020941  66.5451956  86.7750454  57.7901602  66.0009050  86.8094730
 107.6002502  39.0717745  15.5831051 108.1092167  39.0915322  14.7726786
 108.1156349  39.5887280  16.2022734  86.4109707  66.2363529  72.4281454
  87.2947407  66.0286283  72.1247768  86.2642193  67.1371317  72.1395493
  82.0547676  83.0505848  84.5718956  82.9022121  83.4179688  84.3207169
  81.6350937  82.8267002  83.7412453  93.9275646  50.5365562  72.6880121
  94.0607452  51.3750553  73.1300640  93.5961437  50.7725573  71.8215847
 108.3284187  10.7867038  76.9997978 108.2362938   9.8947048  76.6650105
 108.4186077  10.6790388  77.9466343  93.4856987  65.6506252  78.1807995
  93.1458950  64.9192619  77.6651764  94.2974377  65.8988333  77.7384186
  27.9635334  41.8944120   7.6010102  28.5895181  42.5710678   7.3431045
  27.9482222  41.2876511   6.8608499  80.0626278  75.3056049  55.3752947
  81.0097122  75.3236771  55.2376986  79.7761679  74.4907570  54.9627447
  68.5232878  88.0690384  89.3540192  68.5496855  88.4704304  90.2225876
  69.4309282  87.8222370  89.1765308  39.3432140  94.3350697  72.1071863
  40.1304197  94.4571972  72.6378632  39.1363382  95.2107048  71.7805338
 110.4675293  41.0297203  14.5254827 109.8021221  41.4330435  13.9679968
 111.2181950  41.6208839  14.4684172  90.9165192   2.3658244  57.1433353
  90.3739548   1.6245213  56.8744040  90.8656883   2.3655301  58.0991840
  50.9774017  43.5695457  79.9016762  50.0263548  43.6715031  79.8650646
  51.1454964  42.7330828  79.4677353  55.6132793  87.8711891  44.8337126
  54.8788452  87.4847412  45.3106737  56.1738491  87.1272373  44.6134329
   4.3261611  29.3826795  67.7345896   3.3931887  29.3833160  67.5205994
   4.7555208  29.6866345  66.9349098  90.5079746  87.6657009  91.9499302
  90.0853443  87.6619720  91.0910892  90.3061008  88.5282898  92.3124599
  54.5628405  79.5873737  89.6245670  54.8588610  78.9698267  90.2933311
  54.0487862  79.0548801  89.0175819  88.3132362   4.5396265  81.5643883
  89.1723251   4.1507819  81.7286682  88.4583473   5.1413631  80.8342648
  39.6028161  51.2938595  14.3678737  38.6797595  51.0420513  14.3960083
  40.0430250  50.5455923  13.9647126  39.5760846  30.2200747   2.0571439
  40.0420284  29.9127531   1.2795310  38.7602448  30.5880523   1.7176914
  77.3818207  71.1766005  79.1557550  78.1593466  71.1821318  78.5974932
  76.6499138  71.0823298  78.5461235  40.3516722  38.9137888  39.9040675
  40.8281803  39.7415900  39.8414874  40.5677271  38.4512568  39.0943670
   9.5010823  41.9369888  24.5911622   9.8041815  42.2527504  25.4424310
  10.3042412  41.7457342  24.1068196  32.6454091  77.6871395  64.7009754
  33.1182957  78.2183599  65.3416109  33.3083963  77.4452257  64.0543222
 100.2861595   7.9130810  58.8038301 100.6218624   8.2093877  57.9578161
 100.9575844   7.3148155  59.1317034  30.0728273   6.5920019  64.9996328
  29.2370462   7.0578265  64.9730015  29.8625159   5.7449746  65.3927565
  51.0875082  92.5728321  67.3687744  51.6186666  92.1880436  66.6716099
  51.1041403  93.5132790  67.1912336  29.9497652   4.1367844  19.1862512
  29.2904258   4.0697560  19.8769104  29.8869181   3.3067095  18.7137496
  68.1172323  79.2553139  73.3539391  68.1107044  80.0935364  73.8160753
  68.4098196  79.4721270  72.4687195  35.3875113   4.5879981   2.8016767
  35.2931571   4.6774235   3.7500077  36.0101748   5.2726936   2.5573114
 100.7482052   1.9267824  64.0810966 101.4937210   1.7113084  64.6414566
 100.6881618   1.1928125  63.4696102  64.3725920  10.8525026  90.3798771
  63.9604998  10.1016986  90.8073139  64.7480869  11.3609803  91.0986900
  37.5103927  20.6865621  83.7453556  38.1149626  20.6805515  84.4874477
  37.4128866  19.7643006  83.5083866  13.0130160  38.1956244   0.1412137
  12.8534198  38.5502505   1.0158570  12.9594624  37.2466135   0.2541008
  88.3052540  89.2693901  46.4834499  88.2105637  90.2178955  46.5705967
  87.5944996  89.0106201  45.8968449 109.8169518  29.7838449   9.9294651
 110.1205635  29.6025133   9.0399873 110.4413223  30.4246449  10.2696991
  16.8854916  97.8649998   5.0942028  16.4316511  97.4259663   5.8135855
  16.2645185  97.8364372   4.3663236  62.3466969  94.1685486  71.0887289
  62.9766941  93.4644318  71.2422085  62.8727102  94.8892307  70.7420826
   2.1178958  27.2381997  21.5842462   2.0434199  27.7349210  20.7694125
   1.8689747  26.3456345  21.3442516  37.1299744  46.5447569  25.0362468
  36.9528031  45.9646177  25.7767057  36.5177274  46.2606335  24.3575287
  14.3349302  26.5741897  13.5717332  13.8276422  27.1246028  12.9751277
  14.1122770  26.8983722  14.4444096  80.4313564  12.9263783  55.3741121
  80.5466175  13.7337327  55.8752346  79.4842672  12.8492188  55.2587652
  79.3377781  87.1724033  87.1310902  79.9613810  86.4937592  86.8726349
  79.3563080  87.1627903  88.0880642  13.3147418  16.7298150  48.8893938
  13.1784880  16.5801990  47.9538298  13.4896314  15.8597755  49.2481136
  54.7262430  71.2564373  52.1147346  53.9788342  71.5353489  52.6437092
  55.3799105  70.9734106  52.7541494  36.7286682  55.4903412  86.3781929
  37.6705265  55.3312254  86.3163948  36.3767982  54.6938992  86.7758179
  27.6755905  39.5782518  14.1855705  28.3961654  40.0518179  13.7699533
  28.0864644  39.1024351  14.9073815  55.6754494  94.7792339  85.8841991
  56.0194016  95.3532696  85.1997948  56.3834858  94.7203827  86.5256405
  48.0220985   9.6841806  15.7484543  47.6311731   9.3710816  16.5641618
  47.6048899  10.5314708  15.5926728  36.7615366  39.7750068  21.0754704
  37.2377706  40.4083109  21.6124582  37.4363041  39.3633461  20.5356050
 108.1580353  28.8734818  58.8655996 108.3730888  27.9645395  59.0749025
 108.9564228  29.3612003  59.0679264  68.1650591 102.2712898  15.6071627
  67.9355097 102.0447445  14.7059309  68.8866901 101.6817093  15.8259475
  23.7990808  18.4633636  27.6529098  24.4373512  19.0447891  27.2396445
  23.9003181  17.6304591  27.1922016  74.5237725 106.0561724  85.5757904
  73.7979214 105.6107617  86.0128021  74.1093533 106.5566024  84.8728943
  67.8127193  78.8920307  80.1216507  68.4165049  78.5846663  79.4454861
  67.8369522  79.8461342  80.0486469  40.0432444  10.1450336  19.0794802
  39.2221355  10.0319278  18.6007130  39.8951578  10.9133744  19.6308005
  22.1740198  20.6224108  19.0596426  22.3637891  21.5308237  19.2941713
  21.8077421  20.2406096  19.8573279  69.2672491 104.3785000  80.6183815
  69.1711617 105.3037739  80.3928471  69.7269344 104.3831062  81.4579678
  55.1509190  57.2479010  88.3905315  54.6209574  57.5015211  89.1462040
  56.0534573  57.2871017  88.7069511  68.0283594  75.5851841  77.2143269
  68.5966921  76.0275316  77.8448486  67.5560474  76.2946749  76.7786980
  46.4256477   3.1165007  77.9758406  47.2292852   3.3241704  77.4991083
  45.9100389   3.9220956  77.9384899 112.0604992  50.4555178  31.9828200
 112.6956463  50.0345945  32.5621653 111.7548084  51.2170935  32.4755526
  65.5744886  81.5613174  78.3572960  64.6179581  81.5562439  78.3926964
  65.7915688  80.9445190  77.6582479  62.8646660  33.8299227   3.3624357
  63.8146734  33.8804221   3.4681189  62.5729942  34.7414422   3.3794567
  29.5313168  50.2439165   1.5146355  28.6996460  50.7151461   1.4646712
  29.4720507  49.7387791   2.3255348 101.4218903  78.2467031  85.9807205
 101.8216228  77.4198151  86.2503529 101.9736195  78.9203215  86.3782978
  21.0135794  38.4558487  16.8134308  20.3267932  37.7905631  16.7692602
  20.6261492  39.1664767  17.3244476  19.6456575  14.2178595  10.7936943
  20.3153276  14.1041517  11.4681160  20.1220536  14.5640433  10.0390851
 111.4196491  96.7679024   3.6214560 110.9868526  97.4192333   3.0694658
 111.3052464  95.9417820   3.1516954  37.8183031  86.7580795  86.5551090
  38.4190154  87.0672894  85.8770466  37.4558115  87.5575924  86.9366837
  25.3222513  20.6256223  12.0070910  24.4475389  20.4148245  11.6804767
  25.7749367  19.7828960  12.0405710  33.8073802  42.9722452   8.6487830
  33.5445547  43.4116316   9.4575447  33.1321764  43.2136869   8.0147189
  51.3455486 104.0073395  48.6453056  50.9005833 103.1598949  48.6367798
  51.6115761 104.1473389  47.7365351  26.9463873  20.3285718   3.6766556
  26.2051225  20.0480080   3.1399596  27.6947927  20.3093433   3.0802068
  27.8582597  61.8455172  61.9182444  27.1943283  62.1670294  62.5282097
  28.2713103  61.1142397  62.3774385  67.5031662  90.5848598  75.2693224
  68.1356382  90.2034950  75.8782339  67.4584579  91.5082264  75.5175591
   4.9432689  12.6752675  74.3239641   5.6156099  13.3563507  74.3061876
   5.2201444  12.0479047  73.6561394 111.3836479  19.0224504  24.9507284
 111.6061974  18.6410654  25.7999921 111.5114880  19.9635601  25.0699067
  95.2714729  78.1258726  82.1959400  94.3156433  78.1753778  82.2087669
  95.4733944  77.2864246  82.6092052  14.7674882  34.4085956   5.5054325
  15.4998362  34.2815661   4.9023068  14.8374081  33.6811805   6.1236632
  17.2456622  43.4384680  10.5312002  18.1080055  43.5769796  10.9228754
  17.1898592  42.4914455  10.4036331  70.2399731  96.5895271  87.1238327
  69.7906828  96.9049644  86.3396931  71.1501265  96.8604851  87.0037079
  19.0045974  19.7666757   0.8237919  19.5531652  19.0188710   0.5869660
  19.5368430  20.2680652   1.4414963  70.5945063  62.9926729  85.9904480
  70.0253773  62.3893642  86.4682961  70.0000048  63.4855461  85.4248810
  15.5704165   8.3966339   5.1984477  15.0276577   8.7415248   4.4894376
  16.2277877   9.0759182   5.3490037  58.5972548  68.3492899  71.4395952
  57.7945280  68.8335848  71.6327858  59.1320848  68.4481859  72.2272539
  58.8223076  57.5486088  83.8061714  58.8235855  57.6110125  82.8510094
  59.7475100  57.4853420  84.0432930  52.9968929  83.2595634  60.3517008
  52.4863911  83.8245010  59.7716379  52.6018906  83.3830261  61.2148094
  43.3742666 104.9754524  81.9495201  43.4445572 105.0976086  81.0027504
  43.9203072 104.2111206  82.1335793  40.9765196  87.3070621  70.7665968
  40.6596470  87.1313190  69.8806286  40.8213854  88.2428074  70.8952379
  44.8706961  84.6631336  82.4491501  45.2231932  85.5219841  82.6822853
  45.6316900  84.0825367  82.4540520  59.2907000 105.1700020  78.4084082
  58.3955812 105.0129509  78.1078529  59.4572830 104.4707394  79.0404749
  63.1824970  27.9203129   8.3116066  63.5948372  28.4395671   7.6212579
  63.2355785  27.0179605   7.9966909  63.8818645  90.6917381  78.2376242
  64.0162134  89.8014545  77.9127026  64.7544098  90.9852314  78.4998417
  47.0991945  45.4441357   9.4258511  47.9188299  45.2379799   8.9764893
  46.6733027  44.5957136   9.5484501 102.0973587  61.9431973   1.8614635
 102.6235676  61.2702560   2.2933148 102.6891232  62.6904535   1.7739579
  57.1732807 101.1846733  59.2415237  56.2941504 100.8252048  59.3604422
  57.2824669 101.2413883  58.2922649  65.4228592   2.5834322  85.1909447
  64.5785952   2.1744920  85.3812599  65.9487867   1.8806307  84.8092365
 103.2276821  33.8305068  30.6585860 102.8718853  32.9801726  30.4005766
 103.0241966  33.9023066  31.5911460  15.7979620  34.4869137  18.3143699
  16.0850668  33.6585402  17.9301786  16.3754499  34.6147823  19.0669572
 108.6551094  52.2164726   2.7771977 108.4090519  51.3832235   2.3754674
 108.7207317  52.8264713   2.0424663  73.9622402  76.7048931  73.6547947
  73.5322809  75.8749151  73.4486389  73.3045626  77.2006655  74.1425467
  12.1016824  50.3581810   9.5142120  11.7537999  49.5701599   9.9316239
  12.3605251  50.9212589  10.2437162 112.5218391  34.3791318  81.4714718
 111.8255138  35.0175285  81.3171577 113.0124092  34.3564987  80.6498432
  76.3662195  97.5729656  82.7718830  75.8338499  97.2768211  83.5102081
  76.4559221  98.5166645  82.9045773  71.9524097  58.1260729   3.5422003
  71.8079567  59.0398645   3.7878579  72.7855110  58.1335783   3.0709061
  25.7246637  35.1126242  78.4661674  25.9811640  35.8421373  79.0303040
  26.4249659  35.0547552  77.8161955  13.0857027  30.8450866  22.1153760
  12.9215932  31.4629769  22.8277755  13.7435699  31.2769985  21.5704966
  40.8236456   8.0255997   3.9413059  41.2219954   8.8821816   3.7869722
  41.5513611   7.4074239   3.8740960  51.8449402  84.8722553  86.0684586
  52.6348495  84.9030304  86.6082001  52.1491528  84.5600319  85.2162838
  19.0770614  10.1882899  23.5476446  18.8403559  10.2273476  24.4742918
  18.2525516  10.3332007  23.0835128  89.9171638  61.1090899  44.1214466
  89.1025448  61.3827848  44.5429993  89.6363068  60.6818104  43.3122587
   4.5563316   9.5417058  83.9962006   3.6328167   9.7094858  83.8085842
   5.0311059  10.0948477  83.3758354   8.7419677  30.0187087   8.0723143
   8.1590992  29.7369671   7.3672473   8.9212394  30.9393811   7.8813797
  24.6249294  73.0469990  72.8404665  23.8103914  73.5042715  73.0494261
  24.7664475  72.4587679  73.5822105  67.4639320  82.3528671  90.7041359
  67.5448370  83.2817554  90.9205818  68.2034445  82.1772099  90.1223373
  48.7701702  22.0499897  12.1552706  48.8478041  22.9980493  12.0485628
  48.0022335  21.9340253  12.7147830  41.5231085  95.6879902  65.3204823
  42.0376015  96.2921810  65.8557272  42.1612215  95.2893639  64.7287607
  26.3344288  20.8710837   8.2960403  26.9078469  21.1630011   9.0047061
  26.8080759  21.0980225   7.4957967  36.6358709  54.3823767  39.4579482
  37.0219254  54.0179777  38.6614537  35.7702279  54.6877050  39.1865277
  58.0151708   0.0919599  73.3136797  57.7042086   0.9850854  73.4615040
  57.4396069  -0.2520686  72.6305962  76.6980791  85.9186268  86.9863129
  77.5792933  86.2755299  87.0972919  76.8330240  84.9774742  86.8756771
  48.5065031  80.4028606  85.9616852  48.8098192  80.5994511  86.8480110
  47.7155447  79.8792267  86.0898399  12.9329944  34.2913938  31.4521742
  13.6739397  34.4610858  32.0339274  12.1812594  34.2103553  32.0391679
  35.2087426  72.3500443  10.3209901  35.8939910  72.5231504   9.6754646
  35.6524968  72.4207354  11.1661625  28.6475396  48.4050179   3.9206919
  28.0914617  49.1603804   4.1115743  28.3937764  47.7503014   4.5712185
  87.8093910  32.6420712  78.6706638  88.5508633  33.1603861  78.3579206
  87.5708485  32.0911527  77.9251337  67.2278976  80.8146095  67.4431324
  67.3974180  81.1763668  68.3129787  67.9061699  80.1498127  67.3238659
  13.5165656  16.8453729  79.2374468  14.3916976  17.2330403  79.2469120
  13.3097696  16.6982758  80.1603889  61.3557053  68.7434006  78.0805826
  62.2084808  69.0646315  77.7876472  61.5416622  67.8868675  78.4652996
  34.7238827  74.1385317  18.1965649  34.2970896  74.1148186  17.3401093
  35.3950024  73.4576941  18.1486642  20.4409671   0.6336936  69.3878603
  20.3461647  -0.3135376  69.2878723  20.8173656   0.7459137  70.2607632
  36.7734265 100.7352352  59.7358561  37.0828915 100.9870243  58.8657618
  36.8844318 101.5237713  60.2670097   9.9085981  56.4787960   2.2899796
   9.2668772  55.7720423   2.3601350   9.6874988  56.9226646   1.4712435
  82.2752953   1.4627865  72.0665693  81.4454937   1.0437174  71.8384409
  82.8497887   1.2765758  71.3239241  39.0335894  82.0945168  67.7345562
  38.3797860  81.8179226  68.3766365  39.0530968  81.3854122  67.0918894
  23.0161095  41.2088442   0.3961333  22.3664188  40.5230951   0.2415977
  22.9398084  41.4050293   1.3299015  51.6191530   7.3553592  20.1571941
  51.5947485   8.1819946  19.6752095  50.8925772   7.4180585  20.7771802
  14.3592846  55.0494337  16.7542982  14.8079896  54.2205906  16.9213593
  14.1229212  55.0112772  15.8275247  30.5378246  38.1297112   3.8465559
  30.7428479  38.2159615   2.9155576  30.0782347  37.2927809   3.9140615
  26.9053340  56.2010622  78.2110739  26.2542748  56.7820644  77.8176403
  26.5364170  55.9704256  79.0636826  77.9121017  79.1167641  85.7126045
  78.6902714  78.7396955  86.1230946  78.2512522  79.8150730  85.1526260
  40.6145334  48.6440849   5.1291662  41.1744308  47.8738070   5.2261770
  39.7795296  48.2954597   4.8169801  44.6863413  29.4086409  18.4644723
  44.1694117  29.3884730  17.6591098  45.3528070  30.0768542  18.3046281
   9.5550716  13.8901699  85.4741764   8.7039912  13.6169112  85.1317978
   9.9456948  14.4009423  84.7651196  37.9407287  29.2906904   7.4089313
  38.8559461  29.4857001   7.6103848  37.9119897  29.2367411   6.4536846
 108.8451767  48.3085394  20.7863450 108.5891056  48.7847757  21.5761924
 108.2820988  47.5344944  20.7802486  43.5365152  83.1762028  73.2590771
  44.4844961  83.2533646  73.3668137  43.2938671  83.9323425  72.7246618
  60.6568861  59.6375990  81.4299297  61.2379360  60.3106213  81.0754490
  60.5333185  59.0227556  80.7067966  55.0022173  32.2684383   2.8436437
  55.2731562  33.1846070   2.7847868  54.3018627  32.2672319   3.4961236
  20.4785442   5.6499946  14.6724141  20.3201914   5.5510163  13.7336063
  21.3401341   5.2572948  14.8126936  28.6489177  85.0590420  85.6341076
  28.2237577  85.5450153  86.3407230  29.4955564  85.4912758  85.5218029
  10.2752793  66.1621904  12.9791486  10.9951079  65.6823492  12.5694811
  10.0439215  65.6381798  13.7460351  26.3620400  36.6845536  11.6260910
  27.0221663  37.2696042  11.2543631  26.8417072  35.8821559  11.8317735
  46.0273743  21.3436937  28.7019587  46.4218903  20.6547928  28.1671596
  45.9681559  20.9625053  29.5779848  50.2610683 104.2501640  66.1847448
  50.2170992 104.9666500  65.5515432  50.3985596 104.6831989  67.0272493
  15.2434409   2.9684621  12.4451160  15.8080387   3.2250717  13.1742334
  15.6854033   2.2150579  12.0536005  86.5054989  13.7624502  71.4418268
  85.9174728  14.5154500  71.3831568  87.0403576  13.8139486  70.6496716
  78.0205059  30.4578185  91.0411835  78.8815784  30.5792022  90.6411171
  77.6067066  31.3191199  90.9849453  57.9934597   2.8001270  11.4297163
  57.9966736   2.5457504  12.3524916  57.2017717   3.3287790  11.3297570
  78.5898829 101.3652325  71.3061666  79.2536306 102.0396709  71.4503908
  78.1331968 101.2954712  72.1444988  34.5031595   2.7436003  90.5564499
  34.9072909   2.0463091  90.0400257  35.1923800   3.4008920  90.6522465
  85.1770306  98.0994415  30.0628805  84.8033714  97.2182369  30.0540614
  84.4798756  98.6516857  30.4167581  67.4324942  92.0200825  40.6782198
  66.9207048  92.5568390  41.2833595  67.1565199  91.1222172  40.8623648
  43.5320854  66.5708637   0.6783285  43.0961657  66.3773060  -0.1515774
  44.3505812  66.9976807   0.4251073  11.4983034  22.6051497  78.8190556
  10.7805836  22.8415179  78.2314873  11.8107951  23.4415650  79.1640043
  29.8972726  60.4163694  13.5588920  30.6169820  59.8080158  13.7266874
  30.2575445  61.0476589  12.9360664   0.6508428   4.3144146  75.4986382
   1.1493666   3.5358456  75.2505684   0.5451185   4.8015529  74.6814775
  22.9018545  24.0097690  43.8048124  22.4869275  23.8230658  42.9626703
  23.4859157  23.2662535  43.9541149  14.2481625  39.5733118  12.8955483
  14.5855379  39.5652342  13.7912858  14.9358320  40.0000620  12.3844421
 106.5683746  24.0518498  48.7789297 105.6371498  24.2280936  48.6447477
 106.6959190  23.1661701  48.4390259  21.4921689  33.1581187  17.7164960
  22.0328021  33.7177849  17.1590722  22.0071864  32.3585391  17.8244877
  12.6949883   8.7927634  66.1326075  12.1886742   9.5099247  66.5141249
  13.5673320   8.8851959  66.5156269  99.9670696  89.5687294  67.5753117
 100.6954002  89.9668217  67.0985603  99.7570610  90.2005863  68.2629728
  50.6779385  40.1346874  16.1078882  50.3013659  40.0515604  16.9839668
  50.1106834  39.6007228  15.5517054  71.4019918  86.6001606  44.3515730
  71.1232948  87.1552372  45.0798893  71.3215637  87.1599960  43.5793400
  41.1251545  45.1190186   2.4706125  40.6122637  45.4708529   3.1982046
  41.1723566  45.8383989   1.8409309  61.9711113  81.9225597  83.0035400
  62.0459604  82.2544003  83.8982582  62.8598690  81.6516590  82.7734280
  51.9071341  90.0428677  69.7259045  51.8016529  89.3605995  70.3889370
  51.2495041  90.7005310  69.9522543  80.3322983 100.2213573  49.8793554
  81.1090183 100.7799911  49.9089766  79.9484348 100.2983665  50.7528257
  43.6467791  48.7035465  29.6633172  43.1314087  48.4601212  28.8943148
  44.3811893  49.2057800  29.3102741  97.5306606 100.2981472  48.5002041
  97.1755028  99.4217587  48.3517456  98.4586048 100.1524925  48.6844015
  99.6610641  15.2077842  37.2717333 100.2999496  14.5974946  36.9034886
  99.7881889  15.1453125  38.2183957   5.4569834   4.2088789  78.2898903
   5.1115298   5.0096750  78.6843777   5.0900620   4.1997930  77.4058580
  80.6905651  81.5693188  90.1133633  81.0185146  81.1398697  89.3232632
  80.4701042  82.4565601  89.8297691  46.2167072  43.5584593  33.7131405
  47.0948029  43.8860607  33.5185766  46.2139463  43.4293175  34.6615839
  68.5861015 100.9907436  73.5970497  68.4902048 100.1687145  74.0779972
  69.5321083 101.1102486  73.5132456  92.5245380  95.0420856  47.4078369
  92.6865387  94.3990040  48.0980825  93.2483959  95.6636333  47.4848700
  68.3997726  97.6163483  77.8560686  68.9933920  98.0831146  78.4442663
  68.8242435  96.7711830  77.7086067  11.3253534   1.2466694  48.3760977
  10.5032408   1.4654243  47.9373407  11.5785849   2.0527032  48.8260031
  77.0676756  98.0081081  85.4690456  76.3455296  98.1525612  86.0804939
  77.0776796  98.7925243  84.9205780 108.7581921   5.4026109  61.0875273
 108.5165882   5.6579375  61.9778442 109.6651745   5.1056755  61.1613083
  53.9560318  32.8815961  36.1531448  53.6404800  33.6298776  36.6598344
  53.5533571  32.9889083  35.2914214  73.7514687  89.3579006  71.3834095
  73.4737730  88.4819889  71.1152935  74.7074366  89.3118477  71.3988209
  91.7561436  16.1033607   1.8675603  91.7465591  15.1872468   1.5902957
  92.2543049  16.5546513   1.1860850  95.9043407 104.3322849  81.6227341
  96.6391850 103.7637806  81.3924122  95.1328182 103.8722706  81.2920189
 107.1994114  27.1380901  54.5813942 107.7803516  27.8835797  54.4297791
 106.7528915  27.0083642  53.7447214 107.4220657  85.4699802  48.0034494
 108.2936764  85.1488400  47.7723932 106.9734383  84.7058105  48.3654070
  17.1135104  36.9963884  21.5132952  16.7381275  37.0368123  22.3928881
  17.2995687  37.9084277  21.2901378  68.8054991 101.3845921  68.0136824
  68.0721807 101.6053581  67.4394512  68.5421133 101.7101288  68.8744307
   0.4484080  58.0438137  28.1932592  -0.1502090  58.0273485  27.4465203
   0.8048947  57.1564102  28.2340670  35.9671474 101.2620068  67.0617485
  35.4921484 102.0840549  67.1836281  35.2957726 100.6350899  66.7925692
  71.6614246  82.6323509  77.5228167  70.7109070  82.7430630  77.5450468
  72.0035172  83.4100914  77.9636383  89.7563744   5.8130717  84.0872669
  90.0759792   5.1854968  83.4390068  89.0652180   6.2952620  83.6333656
  46.6550636   7.4911749  59.1655302  46.8413639   7.2297907  58.2637548
  45.9092283   6.9491571  59.4227886 101.6057491  87.4874783  65.4144812
 102.4527931  87.9200840  65.3067970 101.6351414  87.1198463  66.2977791
  76.9156075  85.1334095  76.0122156  76.3726711  84.3586540  76.1578274
  77.0071125  85.1863956  75.0608730  72.3243713  93.0312538  67.2769737
  73.1225109  92.6389694  66.9229698  71.6308403  92.7378559  66.6860723
  78.9873648  18.3291614  40.7585478  79.8242235  17.9333723  40.5151320
  79.2226315  19.0367532  41.3587093 105.6218719  37.5761461  88.1751633
 105.9514809  38.4617281  88.0223942 105.0853825  37.6530480  88.9641380
  39.4689107  66.6921902  12.9135191  39.8474622  66.8700266  12.0525289
  39.2002940  67.5512838  13.2391405  54.1383171  98.5724926  29.6229100
  53.5526800  98.8848209  28.9331913  53.7467909  97.7493095  29.9149871
  53.0120802 104.7222042  70.3346395  53.0950689 105.0177860  69.4280100
  52.8798199 103.7765980  70.2671099  50.4846573  86.9636440  86.7590332
  50.8672428  86.1377716  86.4627457  50.9360790  87.1554756  87.5810146
  42.6109934  99.7674656  59.4272614  43.0116844  99.8088074  60.2955723
  43.3474922  99.8383236  58.8199902  30.9837961  53.7694597   9.8981804
  30.8927560  54.5234823   9.3156028  30.7048368  54.0934229  10.7546031
  26.4372754  19.0329969   1.2139826  27.3136926  18.6511743   1.1656453
  26.5618706  19.9502611   0.9703974 111.3478374  46.9033480   2.2802369
 111.5714931  47.7996588   2.5309068 110.7522392  46.6040611   2.9672033
  36.8758345  22.7770209   3.9855462  36.4429522  21.9551182   3.7546355
  36.2312889  23.2467198   4.5148641  87.7409458  69.8217821  47.7819824
  88.3148766  69.2050552  47.3275757  86.9065475  69.3593073  47.8603172
  27.2351074  53.1889057   4.7991690  27.8776193  53.8211060   5.1212484
  26.7390180  53.6684465   4.1357189  15.0072455   8.3966792  75.8529139
  15.9360456   8.1652474  75.8512115  14.7208202   8.2311827  76.7511368
  87.2727585  95.8712959  69.3783903  87.0373535  94.9710464  69.1539717
  87.7801991  96.1803532  68.6279058  90.4556084 100.2163029   7.2330403
  89.9857807  99.5178890   7.6887929  89.9524879 100.3599644   6.4315003
  86.7056179  84.2900658  54.1199589  86.5338898  85.1645184  54.4693518
  86.2219143  84.2627430  53.2944202  57.8878307   5.5765665  38.9639521
  58.1795597   5.9785575  38.1457043  58.0738497   4.6442619  38.8524342
  66.1645699  93.2551384  69.6609068  66.0575104  94.0105247  69.0828466
  66.6137409  92.6033974  69.1226530  65.6822634 103.9965916  85.7784653
  65.5218124 103.6480045  86.6553688  66.4316511 104.5821667  85.8869171
 104.1754246  22.3150921  85.2252388 104.8035526  21.5930080  85.2086067
 103.8733196  22.3906398  84.3201160   3.4153679  46.5263367  11.5363383
   2.9994720  47.3436403  11.2619758   3.6424458  46.0863781  10.7171297
  99.1749287  19.6513414  61.1392927  99.7263622  19.6651626  61.9215679
  99.4100094  20.4496813  60.6664038   7.9314739   4.6805808  88.1781387
   7.6098192   3.8730818  88.5790348   8.6331046   4.3946066  87.5931931
  22.7205634  28.4775114  78.9271688  22.1499372  29.0536594  79.4357681
  22.4745655  27.5939989  79.2012548  51.4236212  73.7767076  71.2048960
  52.1288633  73.2059288  71.5099859  51.3862324  73.6272049  70.2601814
 105.9933567  21.8026567  81.1754513 106.1945820  22.2273636  80.3415680
 106.1193657  22.4891925  81.8304539 109.0069199   5.3119171  85.1224327
 108.5684109   6.1056632  84.8159885 108.5064602   4.5956907  84.7315502
  63.2737923 101.3078499  61.1615181  63.3287621 101.5273476  62.0915890
  62.4975395 101.7738819  60.8509111  81.7888260   3.4453592  74.1718149
  81.9124603   2.7436367  73.5326481  80.9734249   3.8704804  73.9060354
  63.6207962   8.9711142  65.9634733  64.1608286   8.7021482  66.7066097
  63.9241362   9.8545456  65.7542753  10.9868634  19.9431586  23.5999966
  11.7525017  20.2879524  23.1404877  11.3475740  19.3272710  24.2378068
 101.0463333  90.4398060  89.1528797 101.3302422  89.5346832  89.0248680
 101.6268730  90.7788372  89.8342419  51.4775467  34.6307421  32.7518392
  52.3995543  34.4030380  32.8713560  51.3439035  35.3924894  33.3158541
  84.3525314  80.6114769  83.8751507  83.5086536  80.3801346  84.2632103
  84.9324608  80.7447433  84.6249199  20.6893826  89.5771694  87.8286076
  19.8119485  89.7587776  88.1653023  21.2516570  90.2141571  88.2694244
  33.1994963  82.7317142   8.8637793  32.7066278  81.9212341   8.7355834
  33.8308716  82.7444077   8.1444496  34.9135518  24.6883059  11.7689681
  35.6257224  24.4673467  12.3691547  34.4159985  23.8756371  11.6781902
  36.9161725  65.7261324  14.0339315  36.0220218  65.9565115  13.7816334
  37.4372840  65.8935499  13.2486629  57.9617405  71.0362053  66.6030884
  58.4291220  71.1050463  65.7705927  57.2136641  70.4705334  66.4117098
  35.5431604  38.6999989   0.5220014  34.9960852  37.9147983   0.5420635
  36.2115121  38.5094976  -0.1362135  49.5814800  56.1822844   6.3857406
  50.0871849  56.7467737   5.8010650  48.7422466  56.0664940   5.9401906
 110.8271408  23.7234449  78.8985729 110.7035446  22.7836323  78.7655067
 111.2448883  24.0265822  78.0924559  11.4442503  65.3194332   7.1339619
  10.9480000  65.1882792   6.3260221  11.9257605  64.5010376   7.2548187
  54.9879694  67.7151442  77.9875040  54.4074106  66.9548464  78.0211496
  55.8688498  67.3424149  77.9506636  61.6232872  53.5136223  29.6081448
  61.7000151  52.6058865  29.9020147  61.0132980  53.4761190  28.8714337
  37.3280811 101.8900681  82.4189663  37.2164869 102.7331924  81.9797516
  36.9572425 101.2516880  81.8097210  17.6382677 106.4110080  71.2878609
  16.7630713 106.0547767  71.1350203  18.2267468 105.6694134  71.1465740
  -0.0112040  38.2206511  18.6339509  -0.0247352  37.2693396  18.7391043
   0.8660807  38.4802747  18.9153743  23.6712599  50.4765892   0.7005331
  24.0234351  50.0541258  -0.0828741  24.0184140  49.9600506   1.4277914
  94.1625881  36.0060978  58.1798744  93.9283562  36.4186573  57.3485136
  94.9597263  36.4586115  58.4556150  74.7866201  87.5799561  74.7382212
  73.9844227  87.2069359  75.1036787  75.4546928  87.4079609  75.4017925
  80.3657532 103.7145615  62.7597857  80.6756878 103.2886982  61.9605350
  81.1630917 104.0161419  63.1951380  13.3215451  18.5103655   4.6153152
  13.7476873  18.1249690   3.8497400  13.7838042  18.1313252   5.3628957
   7.8088993  66.9434309  35.5411506   8.4577483  67.3264122  36.1315346
   8.3258706  66.4470434  34.9066639  70.3624058  97.4051952  69.2541456
  70.3940296  97.9911900  68.4979391  69.5263243  96.9472790  69.1675186
  63.6010885  87.2663307  85.6437778  62.8765678  86.8298912  86.0919094
  63.3643818  88.1937599  85.6527138   8.0477232  68.2079649  20.3362465
   8.0716598  69.0004921  20.8724976   7.1195084  67.9791641  20.2883029
   3.3437559  25.8056903  58.7003946   3.5472083  26.2724948  59.5109081
   2.7806997  26.4067960  58.2126713  53.7363577  88.7739658  49.5219135
  53.8089180  89.4864464  50.1569986  53.1060123  89.0923595  48.8757515
  70.9173107  96.0957050  76.5294886  71.6509819  96.7104530  76.5225601
  70.9404278  95.6854343  75.6649828  24.7959685  40.0406504   7.0518088
  25.1332855  40.1210976   7.9439849  25.2674627  39.2932415   6.6839707
  42.7727413  90.0433826  58.9467096  42.0940208  89.4173813  59.1990805
  43.0050087  89.7968578  58.0514383  75.8938313 103.5896778  32.2717285
  75.2378702 103.7927246  32.9385972  76.0602522 102.6529312  32.3768663
  11.2633872  42.0872784  57.5301075  11.5347862  42.5455761  58.3254337
  10.7933581  42.7480412  57.0214844  90.2652550 105.1964951  91.5282059
  89.9454212 104.6023560  92.2071362  89.7386265 104.9850368  90.7573795
  99.3764312   1.0241479  87.8452015  99.5264585   0.0796479  87.8857899
 100.0638874   1.3997144  88.3952808  93.1925011   1.5210454  91.1755276
  93.9926529   1.4953643  91.7002392  93.0304432   0.6072801  90.9409904
  25.7228875  27.6787949  52.6763678  26.6687536  27.7022314  52.5313902
  25.3628159  27.3452306  51.8545914   6.1662000   2.1836412  57.0358467
   5.6779313   1.3970864  57.2790670   7.0847696   1.9408289  57.1520472
  68.6999512  52.0180655  56.7041874  67.9570913  51.8106413  56.1372995
  68.9996386  52.8754997  56.4021587  49.5415735  31.2368250   4.3917853
  49.0758753  31.8598104   4.9496794  49.4806862  31.6105700   3.5126722
  87.1867180  45.3303576  74.6097279  87.0910263  46.2663078  74.7860098
  86.4051437  45.1001167  74.1073751   9.7216403  70.3124380  27.7629709
   9.6410310  70.5201340  28.6938834  10.1252663  71.0903645  27.3780799
  80.1688290  92.2431660  83.9793873  80.2901554  93.0059624  84.5447636
  80.0926018  91.5058517  84.5850182  24.8758078  29.2072296   2.8971729
  24.6305466  30.0847816   3.1903958  25.5549550  29.3556523   2.2391728
  24.9889016  32.3695016  46.6631985  25.0492978  31.4156866  46.6101074
  25.8149004  32.6398396  47.0642948 109.9177837  23.2854128  89.8094654
 110.2918530  24.1406369  89.5975876 110.4200745  22.9853177  90.5670166
  33.5908604  53.7742329   8.5165113  32.7763629  53.7042809   9.0144396
  33.3266735  54.1499853   7.6767212   1.5528247  17.6175427  80.9315968
   0.9438634  17.5314677  81.6650772   2.3883882  17.3018551  81.2757015
   4.3179700   5.6464899  61.8531990   3.9602304   5.1340210  61.1281919
   3.8758525   5.3036809  62.6298857  63.4873199   0.8427846  85.4032612
  63.7213373  -0.0843322  85.3594017  63.2767868   1.0796567  84.5000458
  30.1662850  52.1208525   4.4922212  30.1931834  51.9433355   3.5520101
  30.2588964  53.0711985   4.5592824  71.6824245 101.5059566  87.6068497
  70.8199215 101.4299297  88.0149364  72.2527170 101.8194675  88.3087826
  77.1866512  91.0748291  54.9647236  76.2895679  90.7450962  54.9122477
  77.5577688  90.6384087  55.7315588  24.2340779   8.3251411  16.5291595
  24.9904251   8.8884342  16.6930890  23.6606932   8.4689456  17.2820091
   8.9107597  71.2608624   2.4803770   8.5473418  70.5617809   1.9368294
   9.3684930  70.8027840   3.1852731  95.3619957   7.9400891  70.2871990
  94.7452736   8.0061400  69.5581341  95.7018471   8.8284492  70.3946590
  81.2103462  91.5929794  64.5866346  81.1321068  91.0746574  65.3875399
  82.1011829  91.4255524  64.2790461  54.9589825  92.3249912  84.5923615
  55.3319359  93.1759739  84.8224831  55.4762173  92.0317459  83.8422203
  92.9484653  75.0049925  43.1399775  92.7093315  75.8999348  43.3810854
  93.5157681  74.7086525  43.8517189  30.0863218  29.1863465  10.2527773
  29.5355225  28.5404730   9.8103964  30.9303427  29.1282129   9.8050237
  80.1953316  40.7949591  18.1442928  80.0974178  41.7447948  18.0775547
  80.9814358  40.6720114  18.6764193  70.7540655  85.3286362  63.7521315
  70.5142546  85.0291538  62.8751850  71.6695976  85.5961895  63.6718273
 108.2109451  21.2543774  88.6319351 108.5806370  21.9833851  89.1300392
 107.2723103  21.2900281  88.8161564  45.5717373  72.3788929  21.8213153
  44.7832632  71.8371964  21.7879987  45.5206299  72.8245068  22.6669216
  27.5071430  30.3485751  20.1746154  27.8149199  31.0810566  19.6407819
  26.7416334  30.0158000  19.7061193  39.1699409  55.8211946  -0.0895333
  39.9329710  55.2501535  -0.1785488  39.2638898  56.2128496   0.7788069
  28.5056090  49.9538946  16.0332417  29.1779447  50.0710583  15.3620708
  28.8478017  49.2596531  16.5964198  41.4201260 105.2172375  88.3234501
  40.9286118 105.7620144  88.9381504  40.8927155 105.2218628  87.5246716
  55.9670019  47.5771046  15.1747167  55.8591509  48.1297827  15.9487629
  55.6716061  46.7110777  15.4557264  67.9524803  91.2309265  55.2488041
  67.0801973  90.9864712  54.9396276  68.0367041  92.1567345  55.0207090
  48.6449146  73.4368324  25.9519863  48.1739092  73.6181593  26.7653155
  47.9560137  73.2842159  25.3051829  97.5563717  18.1440270  46.8731880
  97.3415470  17.4179256  46.2876463  96.7550468  18.2918108  47.3754501
  17.8838456  45.6231356   4.1943026  18.1340134  46.0021257   5.0369275
  18.4715497  44.8757076   4.0839100  19.1816580  19.6103632  83.2457352
  18.5093248  19.0597200  82.8444958  19.8975039  19.0071225  83.4454727
  15.7690060  13.8438392  13.4910572  15.2648234  13.1164145  13.8555908
  15.5938280  14.5764172  14.0817118  30.2761936  44.3409634   0.2166978
  30.3777862  44.1446590   1.1480279  29.8386979  43.5698986  -0.1442650
  67.2318363  74.7437954  62.5390196  66.2880325  74.6532393  62.4076128
  67.4510765  74.0647173  63.1769991 106.1070061 102.6699257  60.4934216
 105.9952259 103.0060387  59.6041727 106.8414688 102.0595646  60.4282093
  95.0290680 100.4355049  73.5927629  95.6506157 101.1395359  73.7778139
  95.4004192  99.6677685  74.0274000  42.5700283  28.1247687  29.0219641
  42.2877836  27.2597408  29.3191147  41.8809414  28.7176371  29.3217945
  33.1922960  44.8770523  10.3459692  32.2835684  45.0263023  10.6070626
  33.7108278  45.2870131  11.0382760  59.3961668  19.8683572  14.6975601
  59.3653536  19.9359846  15.6518710  59.7977543  19.0156412  14.5307195
  89.2704582   9.1182697  74.7637653  88.6608219   9.8529637  74.8330116
  88.8303852   8.3984351  75.2158737  46.2061930  63.6601353   3.9865661
  46.6299295  62.8279495   4.1966787  46.9085884  64.2028189   3.6282802
  77.1542645  86.4796734  82.2472954  76.5216064  86.0577393  82.8286266
  77.8938246  85.8727360  82.2172451  99.7685909  14.9424112  75.1505899
 100.2260590  15.6031394  75.6705761  99.2985725  14.4135141  75.7952547
  15.7227802  20.3325534  83.9331627  15.4291070  20.7229662  83.1100178
  16.2298059  21.0239673  84.3587208  59.7542429  37.6047206  34.0637445
  60.5878258  37.2803044  34.4045091  59.4156170  36.8837500  33.5329247
  72.4998999  87.0093822  29.7712755  72.6644754  86.2693024  30.3555870
  71.7591381  86.7297649  29.2333913  30.7883215  44.3350220   3.0644953
  31.0529327  43.4804440   3.4049448  29.9137521  44.4768238   3.4267858
  64.6420622  91.5724373  50.6006479  64.5225906  92.0415401  49.7748804
  63.8596153  91.0270500  50.6816626  88.7473106 101.5058804  47.9086781
  88.8024712 102.4302483  47.6663160  88.5065269 101.0593987  47.0969439
  59.7010088  54.3596268  18.2972276  60.4553461  54.7970581  17.9024386
  59.7460794  54.5943260  19.2241144  52.6714516 104.7701168  81.0373402
  52.0380974 105.0759983  81.6865921  52.5281620 103.8249016  80.9897709
  18.8595510  50.8114719   6.2927663  19.3170476  51.0341167   5.4819894
  19.1242671  51.4919186   6.9117576  20.8779693  55.6348753   7.1953374
  19.9968886  55.3037548   7.3693681  20.8220387  56.5726185   7.3790091
  48.4849787  69.3948126  67.6680660  47.5592375  69.2349529  67.4845314
  48.5923243  69.1515875  68.5876036   0.4651108  56.4394140   7.0422566
   0.4313791  55.8244896   6.3094807  -0.1259022  56.0657167   7.6959270
  76.7214251  76.7517471  79.2600060  76.0688877  76.6250849  78.5712481
  77.2330475  75.9427595  79.2569256  49.8907709  88.1125355  56.2851858
  49.9959755  89.0140438  55.9811449  49.6439409  87.6225090  55.5008507
  86.4805222 101.6456985  70.7068777  86.2611961 101.4347076  69.7993517
  87.3905182 101.9404125  70.6710577  83.6550617  86.1585236  45.2826023
  84.2783451  85.6534004  45.8047104  84.1630268  86.4611149  44.5298433
  91.1236668 103.8570309  70.5741024  90.1795673 103.9277649  70.4329872
  91.3216686 104.5390320  71.2158966  70.7376051 106.2037086  60.0107336
  71.1124325 106.7131042  60.7292366  71.0211039 105.3053761  60.1806545
  85.4638481   2.6056153  89.6342182  85.8448696   2.5012338  90.5060863
  84.8998356   1.8398303  89.5260620  35.4005170  49.3108654   6.9807321
  35.0884008  49.9632359   7.6078099  36.0897732  48.8394499   7.4486250
 103.6351204  27.1549606  64.2410898 102.6992607  27.2875619  64.0900087
 103.7545681  27.3321414  65.1741362  19.2074394  21.8214607  84.9428749
  19.0220439  21.0180354  84.4566917  18.4629607  21.9193864  85.5364990
  40.6063080  62.9558849  16.2103975  41.2786198  62.9607677  15.5290663
  40.4396725  62.0279312  16.3758111  82.1254444  92.2602463  79.8374987
  82.3047161  92.7057171  79.0094614  82.2921562  91.3358688  79.6531677
  84.1033459   1.3542759  37.0428467  83.8778591   2.2346410  37.3434210
  84.5838451   0.9671004  37.7745843  63.8857269  82.8296757  87.8005791
  63.9902306  83.6651611  87.3452950  64.3546247  82.1989059  87.2542381
  21.6391420   3.6524874  88.8651371  21.0824299   4.1074008  89.4970798
  21.2862682   2.7633399  88.8315487  91.5042591  44.1150856  16.6010463
  90.7503223  44.7032738  16.6440439  92.0067883  44.4245386  15.8474314
  78.6992264  87.9018784  73.5046816  79.3564987  87.4843884  72.9479694
  77.8869295  87.4356461  73.3071089  93.1881714  23.6053848  80.3984833
  93.1499958  23.9370537  79.5013952  93.8281345  24.1678381  80.8347511
  66.2714529  86.7788315  89.3755436  65.5312872  87.3564529  89.1891575
  67.0351791  87.3556519  89.3603134  37.4358487  28.6160493  11.2905180
  36.9095111  28.1751180  11.9574356  36.8193007  28.8000536  10.5818272
  25.0793433  55.2211952  11.3233411  24.4046760  55.4989719  10.7037473
  24.9018908  54.2920971  11.4700532  73.8982868  77.3334074  57.8442287
  74.5926857  77.1171856  57.2219038  73.2276964  76.6666412  57.6960325
   3.2574698  96.2331009  37.8616691   3.8284171  96.3445568  37.1015191
   2.6270300  95.5652905  37.5918341  24.0513587  32.2599649   0.5060538
  23.7413001  32.8582048   1.1859088  24.5680189  32.8117967  -0.0811220
  17.1079600  33.7586045   3.9885563  16.9475925  34.2878842   3.2072902
  18.0091166  33.9648652   4.2367613  25.6563044  75.4399681  33.8871002
  26.0180545  75.3890800  33.0023527  25.7128787  74.5446205  34.2208529
  69.2358971  59.5394230  83.8026714  70.1620722  59.4099665  84.0068054
  69.1413260  59.2191935  82.9055977 107.8150749  11.1007500  83.1006908
 107.6793003  11.4734983  82.2295666 108.1114006  10.2058256  82.9347515
  38.2657838  98.3722401  73.8307285  38.6602926  99.1806698  74.1579008
  37.3341846  98.4620380  74.0314531   7.5605631  15.2774966  78.8045835
   7.6191723  15.3216434  77.8501987   6.9942069  16.0110998  79.0439558
  41.5454674  83.3843231  19.1337633  41.4821434  82.4633884  18.8805854
  42.4655771  83.5055733  19.3681192  84.7019958 105.6720924  55.0946426
  84.2193031 106.1208725  55.7887888  84.6369648 104.7438908  55.3192472
  97.8888226  33.2574916  51.8599176  97.0530224  33.4201789  52.2971869
  98.5415649  33.3301592  52.5562477  86.3043022   6.9624621  81.4812183
  85.3487682   6.9277602  81.4368343  86.5769672   6.0450041  81.4939022
  47.7596378  19.2136955  34.4397926  47.6720476  18.8954926  33.5412908
  47.6644278  18.4303892  34.9816394 108.7242222  92.9936218  84.2287827
 109.1222477  92.8955936  85.0937653 108.6075401  93.9379406  84.1244507
  27.4748986  22.6788380  90.7973673  27.0924275  23.1215479  91.5549664
  28.2794659  22.2829391  91.1322840  12.6050270   0.9627216  70.7599688
  12.3229218   1.8544352  70.9636736  12.5631535   0.5010620  71.5974331
 100.9797573  14.3808365  83.4631920 101.7911148  14.4575942  83.9652252
 101.0260010  13.5117698  83.0646706  72.4724627  96.2133408  67.0162153
  73.2763433  95.9155178  66.5904140  71.9808006  95.4102612  67.1881342
 101.5778732 104.7911453  66.8458319 102.3017883 105.3372765  67.1523046
 101.8351078 104.5258999  65.9628248  74.7857857 104.4719887  82.0417213
  75.3638649 104.7028255  82.7688789  75.3638458 104.4310760  81.2798786
  18.8734925  -0.2354904  54.5992994  18.3681619  -0.1326351  55.4057074
  18.5183096   0.4279914  54.0078020  78.0304623  99.8597240  27.2631598
  78.1788349 100.3696918  26.4668250  78.5966587 100.2680874  27.9180598
  63.9512348  96.1623287  69.8416090  63.5558510  97.0331192  69.8012114
  64.4966555  96.1102867  69.0567255  90.9542942  68.7328482   1.8963324
  90.4790115  69.4907427   1.5558442  91.6329479  68.5624981   1.2431530
 102.9683113  73.1537533  85.4863930 102.9661751  72.2441912  85.1881790
 103.8488293  73.2889223  85.8366013  76.1388206  72.9523563  91.5118980
  75.6769991  73.3798409  92.2331524  76.0792351  72.0177412  91.7098236
 108.4710217   2.1548457  43.4074163 108.6847878   2.3179965  44.3260670
 108.6693859   2.9802215  42.9651070  26.9671321  71.8077326  20.9020281
  27.2014308  71.0177994  21.3892031  27.1689916  71.5957785  19.9906790
   3.0659065  97.7539349  16.1391294   3.0516160  98.4042263  16.8413806
   3.9478248  97.3834515  16.1736774  89.1331959  29.0530968  59.1054487
  89.9666214  29.2402053  59.5374537  88.5205650  29.6840453  59.4833612
  31.7663002   6.5023595  57.8291273  30.9996367   7.0648420  57.7192450
  31.4237642   5.6121767  57.7486467  17.8559685  24.9329257  68.3907890
  17.5335062  24.4738078  67.6152468  17.1838450  25.5882645  68.5779047
  12.6305592  50.4684687   6.7637432  12.7062154  51.4100933   6.6093081
  12.4375868  50.3937769   7.6983100   7.3829353  20.7289791  46.1333609
   7.2517234  19.8490167  45.7802582   7.3892957  21.2975478  45.3633451
 111.9688034   1.8132669  70.7011843 111.1122227   2.1423824  70.9735584
 111.8590450   1.5973814  69.7751284 107.6867390  49.7743177  69.0252399
 107.6847363  48.9640617  69.5348549 108.0021286  50.4405546  69.6358824
 107.2646904   6.7712438  83.1776905 106.3858509   6.8045259  83.5555363
 107.1330261   6.9583404  82.2482300  25.4120159   6.0178632  79.3012524
  25.3877997   6.9228148  79.6122265  26.1120558   6.0075647  78.6485100
  74.4669771  99.7750282  81.5612888  74.3409348  98.8261700  81.5574265
  74.3942690 100.0300503  80.6415558  39.3267417  53.9921427  11.9031751
  38.7560916  54.2273045  11.1715424  39.9048758  53.3167124  11.5485036
 109.2093086 105.6553745  72.2262192 108.4969139 105.7643795  71.5962553
 109.5253086 104.7639847  72.0785570  83.0222988 103.9478683  76.5888834
  82.3952103 104.5113468  77.0421839  83.0374146 103.1422043  77.1055174
  75.4643011 105.4820824  60.8908606  75.2699280 105.6048870  59.9616861
  75.9932661 106.2439060  61.1276293  98.7926579  82.7832794  65.4122686
  98.4699154  83.6812401  65.3364897  99.7455502  82.8720284  65.4309750
  26.7370439   6.5403432  74.3191004  27.1448016   7.2127020  73.7732983
  27.2115469   5.7372534  74.1043329 106.6874886 102.4905396  22.8330207
 107.5131321 102.6084614  22.3633099 106.0146046 102.5602055  22.1558142
  52.3082399  52.1746826   8.5404968  51.8557835  52.0651340   9.3768686
  52.1558237  53.0895329   8.3037561  60.3104213  83.1389840  91.1853874
  60.7301739  83.8590176  91.6561241  59.3725827  83.3061345  91.2789531
 107.4430180  20.1162863  82.8119278 107.2144794  20.7164001  82.1020889
 107.9784775  19.4425416  82.3929024 101.2864494   5.1538771  68.2099390
 100.8238411   4.7588992  67.4708700 100.5909538   5.4755193  68.7835789
  50.0023651  89.3097591  80.8009720  50.8129787  88.9538193  81.1648941
  49.3071795  88.8204861  81.2409306 111.0229206  36.7089534  78.1056976
 111.6355610  37.3112202  78.5278130 110.2437782  37.2388721  77.9373026
  14.1288149   0.7218968  75.5666780  14.7251427   0.1401853  76.0380983
  13.4058082   0.8690163  76.1764717 109.9224091  19.3138051  76.3800859
 109.3696976  19.0470254  77.1146441 110.5991840  19.8625052  76.7764854
  10.4208386  16.8961561  69.9168539  10.1918983  16.9200504  70.8459663
  11.3384509  17.1671855  69.8892403 100.4398727  46.9382095  62.4741650
 100.9962940  47.1239424  61.7177725  99.6875858  47.5202417  62.3667765
   5.3196973   6.4093107  83.7987423   6.1588848   6.6594470  84.1852951
   5.5313498   5.6766272  83.2202816 103.2682419   7.8621572  43.4587574
 103.6748314   7.0460147  43.7500000 103.3350563   7.8357393  42.5042582
  65.9247398  73.3568335  36.4818740  65.1311874  73.7578344  36.8364286
  66.6214609  73.6405706  37.0737362  99.0977097  83.2264614  54.8526478
  99.4219875  84.1222095  54.9459505  99.2608929  82.8226566  55.7050228
  20.0459504  61.9628859  32.8247070  20.8037162  61.4901257  32.4804378
  19.5738852  62.2581530  32.0461154  54.3133254  69.1160856   0.8713898
  53.8808067  69.8256145   0.3962788  54.5333083  68.4746776   0.1957878
  16.6918683  21.4969373  45.3157091  17.3906064  22.1471024  45.3883934
  16.4427257  21.5153742  44.3916845 108.1686497  30.4300904  44.3353033
 108.1238651  30.7496119  45.2364826 107.9462337  29.5012832  44.3991661
  75.5755281 100.3913403  44.5889616  76.4004469 100.8159256  44.3534231
  75.7566214  99.9639225  45.4260683  87.0116234  86.0620880  83.9088535
  86.9949055  86.2773418  84.8413849  86.9004631  85.1117897  83.8803673
  44.3709993  15.5653179  73.9844036  43.6503124  15.8307290  74.5557165
  44.5230436  14.6456957  74.2021370  39.0295649  23.6849523   5.3210574
  38.4796929  23.0433822   4.8713267  39.6604705  23.1578803   5.8113480
  22.4224901   8.1918520  79.6111965  22.4115419   7.2575241  79.8189020
  22.9403973   8.2527167  78.8085127  79.1673565  92.4282265   8.2739353
  79.9258804  92.2213459   8.8198984  79.2027664  93.3785343   8.1649172
  89.3002510  90.2429676  64.1259813  89.3819237  89.5643616  63.4558582
  89.8066902  90.9796333  63.7838316  41.1144686  16.0112846  79.0168333
  41.8894958  15.8911788  78.4680796  40.4285860  15.5101752  78.5756016
  32.8379679  42.0250177  49.7225714  33.2272243  42.8708792  49.9444342
  33.5865927  41.4399862  49.6062326  75.8117628  85.8914852  61.8543768
  76.7449284  85.9342194  61.6455460  75.4581261  86.7244625  61.5424252
  88.4122562  95.6155586  61.7062330  87.6453686  95.9389305  61.2334347
  89.0703773  95.4727745  61.0259962 105.4472160  65.2954102   4.3452844
 106.1366177  64.6519613   4.1811809 105.8766174  65.9814310   4.8563853
  49.1453028   1.3681230  40.2048349  49.9130774   0.8557349  39.9514318
  48.4932899   0.7140900  40.4565382  62.3322630  85.4254723   8.0743724
  62.3467636  86.3802052   8.1415111  61.5449333  85.2331066   7.5651205
   4.0711391  16.2161660  74.3331099   4.2353076  16.3239956  73.3962774
   3.1425282  16.4228630  74.4388914  14.8676658  12.0895314  77.8210831
  15.5102932  11.3834870  77.7520609  15.0671697  12.5142682  78.6553669
  51.7568207  25.4433656  76.1340237  52.3350048  24.8973584  75.6012869
  50.9374428  24.9506831  76.1800432  16.0667455   8.8460654  40.1506472
  15.7734060   9.3362725  39.3826127  15.2635789   8.6593997  40.6367683
  11.4867938   9.6572506  72.7165127  12.2726560   9.2995751  72.3033333
  11.4099777   9.1770464  73.5409737  27.3507094   7.8162771  65.3493643
  27.1704102   6.9164872  65.0771427  26.5258050   8.2799590  65.2052641
  36.5377498   2.9589158  59.8836040  37.0208621   2.8512049  60.7028913
  37.1880364   2.7999899  59.1994238  47.1410322   6.4660519  56.8380117
  47.2810316   5.8576477  56.1124277  46.1892176   6.5309680  56.9158936
  32.7271891   1.4351840  79.6624422  33.5347605   1.7689501  80.0531578
  32.0279098   1.8842015  80.1374435 107.8444862  15.8785260  87.2800446
 106.9934559  15.7108200  87.6848316 107.9159164  16.8328297  87.2592258
  81.6927814  79.4435120  54.4140911  81.7850876  79.2648125  55.3499174
  80.9725952  80.0717258  54.3601036  18.0044806  67.8562450  47.0355844
  17.4065876  67.1209860  46.9008446  18.8611257  67.5196123  46.7727709
  71.5262318  80.6896877  69.9194765  71.7522192  79.9543858  69.3498373
  72.1821022  81.3576889  69.7198725  28.5646439  16.6264892  68.0313683
  29.4719124  16.3321686  67.9509163  28.5194898  17.0292115  68.8985538
 105.6825352  99.7167683  54.2531872 105.6905460  99.4023132  53.3491468
 106.2932396 100.4538345  54.2558146  71.2135220  13.5279334  34.5354247
  71.4082623  12.5923181  34.4812703  71.8849373  13.8788545  35.1204824
   6.4852846  90.8081436  71.5628338   6.7266983  91.7288494  71.4616060
   6.7473322  90.3997135  70.7377625   3.8823014  21.6612267  48.7329197
   4.7365585  21.2295794  48.7203026   3.8455680  22.0947433  49.5855284
   7.2974950  28.9556527  37.7440262   6.8747258  28.4714794  38.4533024
   6.5915108  29.1365314  37.1234608  74.9767494  93.8710880  72.5509071
  75.4531479  93.4712315  71.8233156  75.5104351  93.6778069  73.3216572
  75.3143311  69.4106293  77.2673798  75.1812601  68.4747982  77.1165657
  74.5849991  69.8325157  76.8131542  96.5845966  95.3770256  66.5294504
  95.8255291  95.8464622  66.1835051  96.7199612  95.7496071  67.4007130
  73.8114548  70.8942223  13.1136322  74.7039938  70.8116102  12.7777946
  73.5479879  69.9967146  13.3168519  94.8092270 103.5424805  75.7558870
  95.4255772 103.3092690  76.4501143  94.0364552 103.0055904  75.9313774
  81.5249443  55.3648138  16.1838257  82.2180557  56.0143137  16.3020289
  81.4935875  55.2173281  15.2385771  68.6502457  27.1417880  75.5979633
  69.4582272  26.7169309  75.3100538  68.6231709  27.9628444  75.1066780
  10.0982749  41.1348486  80.7723904  10.2234256  41.5144873  81.6421318
   9.1675854  40.9135914  80.7392979   6.8782389  23.3694696  85.8763027
   5.9870046  23.0206776  85.8929253   7.1661329  23.3346033  86.7885208
  82.8489113 100.2962208  83.2619286  82.6061440 100.5575848  84.1501808
  82.4441814  99.4365597  83.1461620   9.9665284  21.1306071  80.7260418
   9.8005873  21.5411854  81.5746498  10.7265210  21.5974498  80.3786278
  36.1508536  25.6044006  69.9607992  37.0923829  25.6783009  70.1166725
  36.0175300  26.0088420  69.1035461  91.3551331  94.5715714  42.7763271
  90.8193779  95.1276207  43.3420181  92.2570324  94.7832584  43.0171490
  77.4392891  76.2271404  12.4109006  76.5450954  75.9640026  12.1931660
  77.9916716  75.5645704  11.9960415  22.9410148  20.2148247  84.5984459
  23.4425473  20.0922155  85.4044628  22.0532489  20.4129171  84.8965454
  45.9836102  49.9176121   1.5415040  45.5256653  49.7026014   2.3540860
  46.6062641  50.6004763   1.7909606 105.7880497   7.3070771  60.5918360
 106.7139339   7.4540752  60.7851410 105.3898430   8.1753707  60.6528759
   1.6139336  88.1072330  66.4983797   0.7196257  88.3112907  66.7718792
   1.6476718  88.3659458  65.5774260 105.3370476  89.3843937  51.2050104
 105.2184582  88.4346199  51.2150097 105.3392315  89.6157265  50.2761889
  46.5174961   9.0186548  55.3114128  46.1505318   9.8084486  55.7086468
  45.8770847   8.3338606  55.5041838  75.8019781   5.1931524  85.3652477
  75.9478617   4.3886554  84.8675156  76.0226393   5.8961576  84.7542381
  31.4564681  20.3349018  68.0076361  31.3300967  20.9501910  68.7299109
  31.8840623  19.5785737  68.4093380  28.3367586  17.6685965  45.9143209
  27.6958251  18.0915904  46.4857340  27.8929758  16.8817747  45.5977821
   5.5625200 106.0751343  41.2504673   5.1284951 106.7371082  40.7122803
   5.8763367 105.4242134  40.6227398   6.5708178  93.1027317  65.4089451
   6.4588183  93.6149406  66.2097740   7.1802598  93.6166954  64.8791742
   1.2828870   3.3562297  88.8266087   1.9582163   2.7768284  88.4738255
   1.0577090   2.9732254  89.6744537 111.0811615  32.8327084  48.7105989
 110.1663685  32.8858709  48.9873075 111.4587021  33.6735940  48.9686680
  46.4330339 101.8292809  52.2676659  47.3248005 101.9070435  51.9286537
  46.1275864 102.7328968  52.3477459  64.0711069  94.0711594  37.3061919
  63.4810162  94.7795677  37.0489407  63.7141228  93.2940388  36.8762279
  76.8369150  90.9816456  83.5091305  77.6605368  90.5272198  83.6862755
  77.0738554  91.9088936  83.4919453  98.8522243 100.9171009  78.9198446
  99.5288086 100.2634239  78.7433100  99.1303349 101.6888714  78.4266472
   4.7606874  55.8781862  59.3752861   5.4076719  55.9955692  58.6796856
   3.9497983  56.2325811  59.0104628  20.6039991  -0.2161246  72.4066305
  21.4883699  -0.2476245  72.0417833  20.5428972   0.6487436  72.8122139
  25.1981139  38.9775062  76.4551592  25.9138584  38.3445621  76.5127945
  24.7336125  38.7413359  75.6522274  55.4318190  26.4163661  61.7819738
  56.1009502  26.7987180  61.2142611  54.8053169  27.1257520  61.9251537
  65.3497028  94.0812397  45.8572292  65.1226044  94.3549252  46.7459106
  65.4413462  94.9003029  45.3704309   3.1509304  96.7961788  58.3239031
   2.8590426  97.6211262  57.9359770   2.9654312  96.8919182  59.2580652
   7.6280117  47.5747204  53.7398100   7.0666742  46.8162251  53.9004946
   7.4575913  48.1595230  54.4781876   2.9890987  96.4928818  73.8383627
   2.5368482  97.2573948  74.1950369   3.0998099  95.9085751  74.5883989
   4.1783664   4.2945701  75.8231258   4.7784910   4.0660524  75.1132917
   3.5679537   4.9179268  75.4293537  12.9343247  98.7415886  39.6483994
  13.0887246  97.9643631  39.1114473  13.6002731  99.3666840  39.3620467
  36.0549259   1.2443528  88.8294411  36.9419861   0.8966133  88.7376118
  35.7720828   1.4191513  87.9318428  77.1686029 106.1959839  35.7355118
  76.8714046 106.5428162  34.8943162  76.8482542 105.2940845  35.7493734
 100.7821655  56.9834948   3.3676234 101.2973309  56.4880419   4.0043122
 100.2008915  57.5263071   3.9002624  40.5466127  51.7515993  78.9064360
  40.2879429  52.5494337  79.3677235  40.9563160  52.0635891  78.0995703
   7.4180979  26.4380383  81.6610622   8.1457186  26.7676139  81.1336327
   6.6692126  26.9722295  81.3964081  76.4775419 100.0362015  83.4971905
  75.9419727 100.1395035  82.7105999  76.2971210 100.8210564  84.0145683
  99.5728397 105.0234699  81.5871716  99.3868732 104.4517040  82.3319721
  99.4493484 104.4649029  80.8197212   6.2086743 103.5461044  27.7718234
   5.8904612 102.8730011  28.3734083   6.0666078 103.1754112  26.9008255
 106.4826488  95.5076027  79.4952726 105.7747078  96.1383343  79.3639946
 106.1693478  94.9388504  80.1985455  16.2612176  38.8064027  51.3586569
  17.0700049  39.0386057  50.9023952  16.0088956  39.6058273  51.8207026
  31.7787695  40.3652668   8.2341015  31.4122725  39.8888636   7.4891502
  32.5664186  40.7837820   7.8867042  33.4165549  40.9209538  55.8424234
  32.8348374  41.3742304  56.4526463  32.8408027  40.6261539  55.1368475
  87.9581070  97.0415497  71.6484737  87.6064396  96.7021847  70.8254337
  88.9031410  97.0886517  71.5038157  36.1534524  54.3949986   1.1961904
  36.4405870  54.3492126   0.2842201  35.3745198  53.8397169   1.2302127
  45.3135014  43.8364983  58.7884569  46.0854673  43.4522772  58.3729219
  45.5709696  43.9628458  59.7016811  23.4709454  10.8783090  66.3757610
  23.8497996  11.0960913  67.2273874  22.6856852  10.3726101  66.5852070
  56.3748741   3.3856744  58.8745689  57.3296499   3.3317119  58.8329840
  56.1578894   4.1760433  58.3801365  30.9530258  16.4389443  81.3004398
  30.5091190  17.2853827  81.3525867  31.8756247  16.6424716  81.4541245
  96.1028099 104.3863678  54.8760557  95.3032970 104.8882580  54.7175455
  96.1785793 104.3514347  55.8296108  95.9470654  74.6244574  42.0244217
  95.6121445  75.1131821  42.7762270  95.2254200  74.0482378  41.7725754
  68.1207895 105.7754421  90.2631283  68.1793499 106.1584091  91.1384201
  67.2585630 105.3603745  90.2404976   6.6351157   5.0372535  70.1050329
   6.7770624   5.3256375  71.0066557   7.2106540   4.2793024  70.0025797
  92.7935791  92.8302574  79.3412876  92.2230339  93.5910416  79.4504309
  93.0331612  92.5805473  80.2337456   0.7975794  60.7943392  79.7302961
  -0.0639287  60.6187820  80.1087379   1.3573267  60.0992012  80.0762653
  89.9861908  96.2307358  46.4679861  90.2560806  97.1436405  46.5679979
  90.5025673  95.7556248  47.1190262  55.1803017  18.3160543  61.3114262
  56.0953140  18.5649168  61.1808252  54.6804619  18.9939272  60.8565855
 110.5037212  93.4259510  45.6138468 110.6674576  92.5586414  45.2434444
 111.2449455  93.5800648  46.1995792  21.5037107   4.8559004  73.6665869
  21.5739632   4.2542818  74.4077682  22.3991203   5.1607680  73.5198641
  63.6320543  81.2141228   1.0236774  63.5730839  81.9716263   0.4414857
  64.5058584  80.8572102   0.8645798  57.2068501  50.1024675  13.8157439
  56.7901611  49.5914984  13.1218326  58.0818844  49.7236538  13.8996291
 106.7581654  58.7019587  39.5215034 107.6264954  58.3207941  39.3912911
 106.5739250  58.5661936  40.4509401  49.7567511  19.8007333  56.3167667
  49.9122190  20.7328153  56.1641788  49.0175200  19.5849955  55.7482338
  44.8454285  30.5637527  36.6301227  44.2317963  30.8254099  37.3165798
  44.9173927  31.3342738  36.0667801  15.7463968  47.0544624  35.7907128
  16.2884259  47.8232002  35.6132913  16.2894154  46.3121462  35.5255103
  39.3244600  53.7040377  51.5771103  38.3745050  53.7592459  51.6808796
  39.4513726  53.0826569  50.8601665  51.3384771  74.8065186  13.0104446
  51.6889191  73.9189529  13.0855560  51.2314463  74.9428988  12.0690739
  35.3012300  50.9467030  35.1883388  35.4350257  51.6805506  35.7881665
  35.5483055  50.1739883  35.6963778 111.4753056   2.3301691  61.1316252
 111.3769913   3.2823062  61.1311626 112.4127007   2.1862404  61.2612534
 106.2598991  17.7988434  48.0673170 106.3842773  17.1298051  48.7404823
 105.3131390  17.9369247  48.0389023 109.8513985  61.9295406  62.0597601
 108.9403248  61.9189024  61.7663765 110.3635025  61.9239855  61.2510920
  94.0832520  14.7564888   5.4528797  93.7586498  14.2926240   4.6810704
  93.3587170  14.7188497   6.0772705  85.6448555  86.1964798  10.0669277
  84.7585392  85.8354950  10.0857913  86.0224152  85.8620644   9.2533857
  21.2156010  20.0229597  41.1252594  21.0555029  20.0512791  40.1819658
  21.0522389  19.1117549  41.3686705  27.2869420   5.1182055  47.5652647
  26.4879131   5.5367494  47.2449446  26.9770241   4.3764758  48.0848980
  26.7567754  27.1082187  56.7446709  27.0615530  27.8584123  57.2551107
  27.4586153  26.9464660  56.1142015  49.3791437  25.2218771  73.0905628
  49.6374416  25.6926751  72.2981882  49.6427488  25.7979608  73.8081121
 104.0565491  96.2306023  49.4736862 103.1858158  96.5294266  49.2114639
 104.6452808  96.9300747  49.1901779  28.9021659   3.0824187  52.6700735
  29.4143963   3.2028803  53.4696579  29.4164252   3.5153967  51.9886732
  52.5480366   0.4245083  73.9823437  52.5042629  -0.4242259  74.4227600
  51.7358541   0.8656825  74.2312670   8.8384962  29.0900660  20.6742501
   8.2450986  28.9120650  21.4039254   9.7081971  29.1146040  21.0733104
  64.8646307  28.8777018  51.2999868  65.0611496  29.8145127  51.2996769
  63.9377499  28.8273358  51.0663605  35.6609416  32.5569463  86.5355587
  35.0236154  32.6964784  85.8351421  36.0039306  33.4303236  86.7247772
  38.8324451  38.1999207  64.7487211  38.4781003  38.4265280  63.8888836
  39.5724106  37.6233125  64.5584488   3.7953362   3.7385347  57.1166515
   4.6594208   3.3901045  56.8971395   3.6800408   4.4827887  56.5258694
 100.4587555 102.4615955  54.3210316  99.9116421 102.8725052  53.6516666
 100.2130890 101.5367794  54.2966032  93.6137676  92.6989937  61.4758110
  92.9116249  92.1451092  61.1345577  93.4377098  92.7575207  62.4148607
  48.7264729   2.1231091  53.8434505  49.2805481   1.4672291  54.2665958
  49.2775106   2.4932548  53.1538296  56.6853542  51.2438592   1.2121376
  56.0517342  51.4046171   1.9113621  57.3267884  51.9484458   1.3035187
  10.8882236  30.7747579  75.8063221  11.6399908  31.0999370  75.3110075
  10.4973412  31.5592885  76.1909676  28.2666922  40.8690786  39.8343539
  28.4788346  41.4890146  39.1365671  28.4999466  41.3278532  40.6414127
  30.3049254  19.3627620  61.9247580  30.8894277  19.2958248  62.6798153
  30.0242686  20.2778769  61.9195127  65.3005886   6.8732929  40.0696087
  65.5033255   7.3384702  39.2579794  64.9750280   7.5526530  40.6601238
  24.5084333  29.5250010  90.1374817  24.8386359  30.4234266  90.1321030
  23.6513448  29.5873523  90.5590820  38.4432411  30.9015989  34.4455481
  38.1213021  30.0375319  34.7024035  37.7856946  31.2295651  33.8321114
  37.3402071  21.8863297  47.6837111  36.7032170  22.2302222  47.0574379
  38.0282927  21.5033031  47.1395922 110.8777809  94.4878006   2.3628099
 110.1936913  95.1233673   2.1523227 111.0157299  94.0055561   1.5475485
  22.8724504  32.9250216  70.1719475  23.3519506  33.0335259  70.9932518
  22.3660612  32.1220446  70.2945328   8.7928021  44.8912954  83.2669163
   9.1024190  44.0313339  83.5512161   9.5118743  45.2433348  82.7422810
  44.7485828  30.4932356  84.5558834  44.1812992  30.2632141  83.8200092
  44.6902323  31.4468670  84.6143246  59.5425987  34.6284485  35.1120663
  59.0170336  33.8287807  35.0887036  58.9488935  35.2952576  35.4571962
  16.6975975  20.5881953  42.3594379  16.6461766  20.5973911  41.4036655
  15.9780478  20.0190783  42.6325417  66.0770893  60.0938797   6.6361529
  66.1413288  60.7915449   5.9839499  65.2681065  59.6326733   6.4146346
  30.9646344  60.0916719   7.4155402  31.0632944  61.0359383   7.2936332
  30.4614496  59.8031521   6.6540998  46.1597443  48.2480192  90.2964020
  45.6024647  48.2204914  89.5186329  46.9584322  47.7896976  90.0351143
  14.4824135  47.9550934  78.4658766  13.8629186  48.0184555  77.7389383
  14.1827738  47.1990585  78.9707088  22.1722364  42.5393629  53.7811279
  22.4148560  42.2957420  54.6744442  21.3405967  42.0908451  53.6280394
  84.4825172  71.1411715  25.0409651  84.5657635  72.0458508  24.7395515
  84.1338539  71.2157965  25.9292769  95.0518227  25.2069020  74.1415310
  95.0570297  24.2576671  74.2646503  95.6440544  25.5391693  74.8161411
 112.2659111  36.6703820  61.7915583 111.7715073  36.9502258  62.5619364
 113.0835342  36.3206792  62.1457243  26.1023951  15.4326057  74.2773438
  26.9075179  14.9267340  74.1673326  25.5793738  15.2215791  73.5039425
  13.0625212  16.7824829  69.1836596  13.3648694  16.4112806  70.0125265
  13.5130036  16.2692750  68.5129023  95.8311136  79.9831484   0.3671345
  95.8965356  80.7358430  -0.2205768  96.5188129  80.1264713   1.0173306
   1.6370493  38.4145665  64.3774509   2.1737637  37.6486754  64.1735411
   2.2643679  39.0754843  64.6705246  41.9645834  48.8802433  64.9505568
  41.1941767  48.3882570  64.6665668  42.2357225  48.4527302  65.7629299
  26.5925407  18.7992167  55.4992199  25.7239413  19.1952169  55.5695772
  26.9706917  18.8944089  56.3733864   2.1269281  25.6845832  69.8845243
   2.6874825  24.9862313  69.5464182   2.7063382  26.4430881  69.9565363
   7.9672325  16.0059011  76.1004543   7.9764408  16.8692291  76.5137482
   8.7185889  16.0161889  75.5075026  20.8421731  15.7484233  42.2092295
  20.1194024  16.3754940  42.1843863  21.6180587  16.2837088  42.3756742
  92.3458672  48.9633989  57.8777552  91.5152454  49.0256548  58.3493710
  92.1725082  48.3450699  57.1679354  84.0376186  99.1940498  55.4995155
  83.2692146  99.3139935  54.9414873  84.5649529  98.5383034  55.0432825
  70.3950596  64.7657633  13.8372314  70.5424213  65.5184603  14.4099128
  71.0405874  64.8669910  13.1377470  26.2443018  10.1063275  55.5246735
  27.0509434  10.2203739  56.0272217  25.7417583   9.4607759  56.0216093
 105.3342056  26.5889239  43.9895487 105.3661060  27.0155787  43.1332874
 105.1132202  25.6780839  43.7952089  32.0220518  34.8734617  39.6059179
  31.3483787  35.4905677  39.3203044  32.8227615  35.1786280  39.1793394
  71.7821074  23.7547374  63.6113501  72.7170229  23.5497165  63.6229658
  71.4949465  23.6145949  64.5136404  22.8248395  -0.0670558  59.3202591
  22.3726549   0.6412667  59.7785616  23.6200799   0.3396196  58.9761114
  30.0022554   7.1695709  76.3213205  29.9494171   6.9998848  75.3807640
  29.4649053   7.9504567  76.4543772  18.2694685  34.8745227  44.8479319
  17.4404621  34.3960047  44.8470545  18.1112540  35.6266809  45.4184246
  75.2215242  90.5862141  74.4681787  75.7550907  91.3645172  74.3076515
  75.5233431  89.9508381  73.8189936  48.3953238  28.8445950  60.7721090
  47.8462982  28.7151337  61.5454435  49.1706181  28.3077288  60.9361982
  64.2342281   5.9474570  20.8146811  64.5493317   5.2481616  20.2420330
  65.0116968   6.2324083  21.2948704  82.1524525  93.4654999  36.6824961
  82.3984814  92.5465202  36.5767789  81.2154388  93.4417820  36.8766141
 109.9852657 103.2036781  71.8807840 110.5868530 102.7428341  72.4655485
 109.7824097 102.5668526  71.1955500  51.5797138  55.5248260  14.5373464
  52.0602608  56.1084604  15.1244366  51.2636948  54.8215771  15.1046228
 107.4083805  49.3966770   2.3372084 106.5463638  48.9963055   2.2237590
 107.6366138  49.2193365   3.2497287 107.4983692  99.8735428  35.3562546
 107.4608326  99.9552345  34.4032860 107.6340675  98.9387894  35.5113530
  99.5239162  19.5961177   3.9793783  99.9483967  20.4434752   3.8450983
  99.7296715  19.3660700   4.8854551   4.5813623  10.3829205  65.9003639
   3.7855682  10.2508759  65.3850889   5.2270883  10.6971693  65.2675009
   8.0201817   0.0298474  52.1334743   7.2260725  -0.4361945  52.3950577
   7.8821236   0.9272021  52.4366665  27.3878622  22.4016905  67.6553583
  27.5257611  22.8165126  66.8038082  27.7426171  21.5186977  67.5518942
 106.3659477  94.7111034   9.7684705 107.0794868  95.3172779   9.5693755
 106.2919140  94.1633606   8.9869773  14.8949409  49.7770739  39.9870706
  14.6912229  50.1823997  40.8299494  15.1661086  48.8863087  40.2089691
  15.7654965  64.9295759  52.7291441  16.3549507  65.0794506  51.9900131
  15.9275520  64.0213871  52.9844046 105.6288910  92.7612686  60.7990074
 106.1465645  92.2274780  60.1962519 106.0185528  92.5986385  61.6580439
  59.2931461   1.0669084  69.6039867  59.4521666   0.2334004  69.1610336
  58.3402920   1.1579052  69.6082592  33.6996174  18.2622814   8.7158281
  34.0572524  17.7737772   9.4572413  34.3277192  18.1174386   8.0081975
  45.5837345   6.4954656  43.7885332  45.2927351   6.7736870  44.6569490
  45.0410271   6.9986343  43.1814718  22.1310878   4.4569314  50.4465532
  22.3586798   3.8335523  51.1363602  22.1821642   3.9480323  49.6374512
  33.9796877  23.1550217  77.0359230  34.7756219  23.0884886  77.5634575
  33.2684159  23.1695628  77.6763201  85.9963894  76.7792130  72.1347380
  86.2834740  77.5956678  71.7258120  85.3110027  77.0462084  72.7472734
  89.0339756  22.8340697  26.2780619  89.0624332  22.2494888  27.0354843
  88.1132317  22.8426218  26.0165715  21.2124944  33.6703062  82.8682137
  20.7509422  34.5084596  82.8947353  21.7626238  33.7244463  82.0867729
  97.4250793  72.9613304  13.5817206  97.0935154  73.8267136  13.3421266
  97.9479694  72.6880598  12.8279722   6.7691135  10.6164706  51.0670710
   5.9889776  11.1321378  51.2712955   7.0300823  10.9121120  50.1948786
  24.7915840  30.2242684  78.6027145  25.6415629  29.7846770  78.5798073
  24.1529942  29.5112300  78.5990858  44.7195482  18.9663541  72.7263927
  44.2481661  18.9354265  73.5589027  45.6367254  19.0821135  72.9746294
  13.0924177  44.8343849  67.2056198  12.6173222  44.0063620  67.1356630
  12.4157095  45.5064297  67.1240473  28.4988952  20.6753874  84.2928696
  27.5418019  20.6625009  84.2987728  28.7246966  21.4915442  83.8466263
   0.1402170  27.8901649  51.0373688  -0.4316824  28.3691835  50.4376125
   0.7397634  27.4110961  50.4652977 103.4134197 100.7787132  55.2032995
 104.3228340 100.6388664  54.9394131 103.4613705 101.4551640  55.8788347
  49.7569180  32.5850153  24.6026063  49.8621130  31.9682145  25.3269815
  50.5068731  33.1748462  24.6794391  49.6070290  64.1495514   5.4758793
  49.1366243  64.9806690   5.4111242  49.3095207  63.6462688   4.7179696
  25.5250192  69.6039200  87.7075195  26.3453746  69.1476822  87.8948593
  24.8929691  68.9035082  87.5457382  21.7299461   5.0492120  53.3251905
  21.7401433   5.0535840  54.2823219  20.8009577   5.0263017  53.0956602
  54.1492081  15.4426956  39.6437788  54.2981625  16.3229179  39.9891067
  55.0259686  15.1072645  39.4566917  15.1877856   6.5352207  58.8424587
  14.5126212   6.3104832  58.2022429  15.9877038   6.6268635  58.3248043
  37.9725933  44.4456434  75.4041910  38.5281205  44.0797949  76.0925055
  37.7413130  43.6941242  74.8583364 101.7173100  30.0010467  75.4136658
 102.5560951  30.3906679  75.6603765 101.5367413  30.3532338  74.5421219
   4.1699266  13.8512027  62.3257446   4.8412794  13.5744154  61.7021227
   4.6150756  14.4804442  62.8933096  20.7267356  23.0234838  71.4866400
  20.8166385  23.4941936  72.3152399  21.5707517  22.5885224  71.3654709
  31.6699696  38.1906366  41.3922787  31.0534430  38.7568831  41.8564892
  32.4305677  38.1393337  41.9711447   2.5070444  28.0533814  44.1459894
   2.0164919  28.6124539  44.7485065   3.3356628  28.5137343  44.0129614
  41.9599152  45.6255674  22.2063708  41.1068487  46.0562372  22.2614598
  42.5169754  46.1197233  22.8078103  25.1349163  60.5027866  77.9987669
  25.5157733  61.1186695  78.6247587  25.1283240  59.6646786  78.4611130
  57.2951412  38.8603544  77.3407459  56.6365957  38.3027720  76.9264364
  57.2946453  38.5898519  78.2589293  88.2085800  96.1300945  35.4079962
  87.7042198  95.7971001  36.1502695  87.6126766  96.7343998  34.9653316
  31.9606590  16.3488090  53.0028439  32.5452137  15.8034098  53.5292196
  31.2831855  15.7464612  52.6955318  58.5511351  47.9617739   7.7389973
  59.2274809  47.4483061   7.2972482  58.1753731  47.3602629   8.3818209
  22.5971603  17.9407227  45.6834507  23.3553123  17.6482296  46.1892986
  22.9722738  18.3350384  44.8960257  44.8509979  21.3747716  81.8629074
  44.9082756  20.7067227  81.1797810  44.0901613  21.1193085  82.3845482
  47.7972174  20.3008151  76.2651873  47.2729588  20.9502268  75.7965183
  47.4832916  20.3461218  77.1683073  37.1360707  38.0992818  71.5629625
  36.9886470  39.0243578  71.7597723  36.2811160  37.7755594  71.2792635
  14.8120630  31.7257929  42.2955465  15.3639495  32.3245740  42.7986526
  15.3043926  31.5655971  41.4904499  29.3561172  28.3976603  77.9020357
  29.7323442  29.0440583  78.4994078  29.7537136  28.5952568  77.0540333
  84.9526691  34.8328972  56.2375307  84.9669075  34.5674396  57.1570730
  84.0558720  34.6586895  55.9518003  35.5373693  23.1515360  80.8769512
  35.0132108  22.5329781  80.3681469  35.3876352  22.8995347  81.7881584
  51.6203308  40.8941031  82.5778484  51.2006664  41.7102957  82.8497696
  51.5065479  40.8712578  81.6277122  42.9662085  48.3948755  90.4998112
  43.2968378  48.9408255  91.2131596  43.5731602  48.5523319  89.7766018
  26.8043089  16.2112522  40.6925583  27.4893975  16.4464390  41.3183165
  27.2686744  16.0855496  39.8650360  13.6419559   9.3419439  78.5367775
  12.9597878   8.8572937  78.0720234  13.4003639  10.2614796  78.4257793
  58.0066729   5.8170414  82.4660873  57.8703594   6.5637803  81.8829727
  58.4525061   6.1865813  83.2282639  59.6421862  80.1199055  74.7994471
  58.7901688  79.9658108  74.3913412  60.1455355  80.5883026  74.1335011
  67.7800274  24.3289995  61.8570995  66.9641876  24.0178871  62.2493267
  68.2376528  24.7690177  62.5734758  56.7145681  64.1841698  17.3438561
  55.9460592  63.6286163  17.4742043  57.4426556  63.6723232  17.6961851
  62.0728540  26.6441059  46.3830471  62.0504999  25.8991241  45.7824326
  61.2662125  26.5654540  46.8923330  62.2986174  16.0266292  60.2509212
  61.5476084  15.4446507  60.3671789  62.9043627  15.7783794  60.9492588
  27.2792983   1.9862969  69.5544863  27.5580025   1.1569823  69.1661644
  27.8761744   2.6366520  69.1843367 111.4336395  47.0718861  51.8509245
 110.8175087  46.3508844  51.7214298 111.9344521  47.1082592  51.0360003
   5.5317116  98.9762783  87.4468899   5.9268075  99.7722149  87.8027248
   4.5975912  99.1773319  87.3900700  94.7558689  98.8363075  35.5750322
  94.8188686  98.6534691  36.5124941  94.7661686  99.7916412  35.5161047
  69.2809534  87.0974541   4.4849947  70.0058937  87.3799801   5.0425547
  69.6961069  86.8531132   3.6578432  31.0611987  32.2920632  47.8818035
  30.9928942  31.6413188  48.5804415  31.3011837  33.1021595  48.3316755
  80.8267784  69.4525194   3.3060002  81.7791653  69.5423269   3.3393881
  80.5145264  70.3139782   3.0292052   0.9018720  51.9224501  13.6729383
   1.1145228  51.9156456  14.6061945   1.5539539  51.3460255  13.2744956
  30.2798796   6.0306859  48.3619547  30.5104995   6.4870006  49.1711664
  29.6858692   5.3338462  48.6408806  25.9713912  16.3645029  60.0069094
  26.7013407  16.6961360  60.5298090  25.2081537  16.4530754  60.5777454
  56.5593147   2.3153768  70.1841259  56.2350416   1.6000906  70.7313395
  55.7704401   2.7056745  69.8078632  15.6609774  13.5753489  63.8105679
  14.9243391  13.2190394  64.3071938  15.8212161  14.4337976  64.2025137
  31.5072203   5.5635768  85.2606583  31.5044808   6.3816005  84.7636032
  30.6829572   5.5761546  85.7471371  23.1980538  87.9606533  72.8451014
  23.1857657  87.0035362  72.8417587  24.0703821  88.1878567  73.1670475
  10.7833064   2.2888097  73.8992786  10.2362883   1.6477512  74.3531990
  10.1615179   2.9176760  73.5330248  47.8231955   1.4654706  69.5927525
  48.3612013   0.7533380  69.2468452  48.4550667   2.1154061  69.9002552
  37.6773357  43.6521673  68.6229467  37.4335122  44.4692707  68.1880569
  37.2222471  42.9717398  68.1268215  40.9212160  16.5514851  50.7898378
  40.0986671  16.3436842  51.2330818  40.6665421  17.1305323  50.0714540
  52.1115685  33.2070899  74.2632675  52.0492935  34.1178584  73.9754248
  52.7230978  32.8026867  73.6478615  32.4904704  28.9737988  66.6524553
  32.5155830  29.0391660  67.6070929  31.5778255  28.7676525  66.4504242
  16.1944461  44.5892954  54.5403576  16.7482722  45.3331041  54.7775364
  15.6284809  44.9242496  53.8448572  11.4503801  34.1329861  79.0139294
  10.8493745  33.3930063  78.9275885  12.1157801  33.8302708  79.6318626
  35.0694275   6.0799438  52.8946400  34.7436881   6.7359000  53.5109568
  35.7286692   5.5931062  53.3892298  90.3102207  28.5752487  64.9005890
  89.6212578  28.6814022  65.5565643  90.9242058  29.2871428  65.0807524
  36.9067478  10.7211995  55.8300066  36.1977577  10.3146362  56.3282776
  37.6255417  10.0909424  55.8784103  89.5631504  71.3224697  39.8611474
  89.1445065  72.1776581  39.7630191  88.9655972  70.8260345  40.4203558
  44.5065641  23.3136678  76.3311005  43.9425135  24.0818858  76.2420940
  44.7420645  23.2956195  77.2587013 112.0481014  34.2424989  78.7074327
 111.7067528  35.0859189  78.4101820 112.6559830  33.9739084  78.0185413
  48.2056808  34.5002389  91.6530800  48.7994146  33.7774658  91.4498329
  47.3328114  34.1084218  91.6245556  22.0728803  22.6072359  59.2456579
  21.8866944  22.2412348  60.1103020  21.7878318  21.9298363  58.6323833
  38.6707091  50.0705576  52.2022963  39.6006298  50.2863026  52.2725058
  38.5001135  49.4994831  52.9512978  68.1376266  28.6501527  59.1096830
  68.1352329  29.3030691  58.4097385  68.0096912  29.1576910  59.9110985
  89.3442440  46.6323090  22.7889919  89.4654942  47.5811291  22.7534318
  90.1334381  46.3060331  23.2213664  57.8547192   1.4525329  39.9577260
  57.3557806   2.2298722  39.7066593  57.2407055   0.9301892  40.4738379
  81.9017792  39.8528647  13.0223608  82.2979069  38.9820647  12.9903495
  81.0204792  39.7281814  12.6702321 101.7535019  95.2826023  60.0612020
 101.0695362  95.8538342  59.7117472 102.3089981  95.0850677  59.3071175
  40.0312090   9.7660619  54.9399233  39.8250842  10.6458032  55.2558374
  40.5430079   9.9111354  54.1441584  74.1820812  78.5819817  14.6950471
  74.4479656  78.7808323  13.7972760  74.0270758  79.4380951  15.0941348
  30.8218376   5.6859686  91.5011864  31.2441056   5.7360413  90.6436230
  31.4729111   5.2679016  92.0647055  57.8339958  28.7538218  66.4067364
  58.1848383  29.6342015  66.2722969  56.9168901  28.8181996  66.1402702
  45.1157093  44.2443943  76.4100122  45.4718733  44.5042801  75.5604029
  44.7502327  43.3725309  76.2599516  43.4734488  18.1810880  55.1858854
  43.4782743  18.1153202  54.2309570  43.5222721  17.2743499  55.4886627
   3.0303171  98.7134552  77.8886604   3.4117392  99.5108223  77.5212908
   2.1145961  98.9392567  78.0520630 103.3044052  88.3345318  28.8635230
 103.0697632  87.6722336  29.5135522 102.5508308  88.9242744  28.8396835
  83.2110691  67.8412294   0.3613289  83.1514835  67.1799612   1.0508235
  84.1434097  67.8819752   0.1484659  36.0077929  39.1714549  68.1074142
  35.8767891  38.2253313  68.1700087  36.9512510  39.2903781  68.2168579
  31.4391661  13.2926881  83.2165432  31.9423127  14.0944970  83.3585930
  31.7516947  12.6909471  83.8921738  32.9897141   6.2089270  65.3336191
  32.0818472   6.2970835  65.0433826  32.9481626   5.5953884  66.0671520
  55.1463604  15.4392409  47.4125433  54.6140814  16.0634375  47.9057884
  56.0458326  15.6270766  47.6806879  44.2605925  38.9033628  32.0279956
  44.8433495  38.3814645  32.5795841  44.4188166  39.8072362  32.3004103
  51.0592747  42.6884031  51.0322618  52.0134068  42.7635002  51.0172987
  50.7477427  43.5246134  50.6859589  45.4584265  81.1035442   8.7506276
  45.9846783  80.6347466   8.1029248  46.0075331  81.1261845   9.5343387
  52.2554684   8.4847975  29.6208119  51.6094112   8.7415457  28.9628410
  52.9157495   9.1771656  29.5910931  42.7098560   3.0952004  59.8021126
  43.1984901   2.3799476  60.2093935  42.4450684   2.7494583  58.9497137
   8.9642996  23.9999485  53.8743305   8.4300649  24.3415928  54.5913410
   8.8131136  23.0549312  53.8922262  17.4943900 104.7098446  38.4014702
  16.7688000 104.7109222  39.0257692  17.6555991 105.6357574  38.2200050
  52.5506735  25.2483225  78.6700869  52.7517033  25.3324461  77.7380276
  51.9795561  24.4820452  78.7237167 103.2285176 106.3180408  59.2325497
 103.1961499 105.5145079  59.7517014 103.9759312 106.1951344  58.6473131
  14.7616088  75.6192684  68.0245972  15.3037226  75.8389997  68.7822676
  13.8881361  75.4753876  68.3887100  29.2740130  21.0934377  87.6654720
  28.8611197  21.9557858  87.7113914  28.7384653  20.5408454  88.2347393
  96.6736412   6.1291122  68.6112213  96.1671925   6.5565681  69.3018913
  96.6476917   6.7450953  67.8790188   5.8362144   9.9262220  68.2648373
   6.0373151   9.0027505  68.4164667   5.3773129   9.9366319  67.4248743
  76.1555910  87.1055698   5.4065329  77.0178747  87.4129581   5.6862080
  76.0046625  87.5446987   4.5695019 101.3048267  82.2427559   2.1944793
 101.1907387  82.8683758   2.9098886 102.0654106  82.5667191   1.7119968
  98.3486366  69.2914820  11.0691082  99.1393852  68.9425135  11.4804018
  97.9047489  68.5221195  10.7123423  37.1282864   7.2778153  56.1985493
  37.7690053   7.6484948  56.8054295  36.5265656   7.9993439  56.0153484
  15.0178778  36.3782454  38.5429931  14.5452559  37.0158958  39.0780306
  15.9232926  36.6888165  38.5441589  28.6221623  14.5228553  61.0180044
  28.4824657  15.4395103  61.2556219  28.8247728  14.0888035  61.8467283
 102.0372009  44.7423553   2.6107985 101.4644909  44.8659277   1.8538558
 101.7136860  45.3665733   3.2603550  70.4945230  13.1017387  31.7894816
  70.9186220  13.8383925  31.3493514  70.3926992  13.3909154  32.6962566
  95.0845528  92.2857189   3.9435419  95.1803589  91.7131519   3.1824729
  95.8100891  92.0429230   4.5187643  39.3131948  18.9838064  88.6157608
  39.3207073  18.1822789  88.0925655  39.0165734  18.7021661  89.4811630
  40.8552122  27.8823686  45.6091309  41.7768002  28.1178737  45.7160997
  40.3762007  28.6778855  45.8413696  31.1745906  38.5968876  69.6763515
  31.5215564  37.8305387  70.1330280  30.8474851  39.1640472  70.3746080
  18.9921999  55.9648371  64.7597408  19.1583514  56.8375158  65.1161909
  18.5492146  56.1266899  63.9267969  93.8173866 104.4789124  73.3591413
  94.4748592 105.1118088  73.0703497  94.2173290 104.0451145  74.1128588
  48.0130625   6.4074719  63.7517405  47.6457310   7.0547748  63.1498289
  47.9960728   5.5864072  63.2600117  98.4253025  25.9859514  61.1921024
  99.0778351  25.7142353  60.5466557  98.6675072  26.8851137  61.4136410
   9.7101426  52.0566368  59.5809650   9.0693742  52.6803589  59.9224567
  10.4470897  52.5994968  59.3008900  66.8583918  72.2056961   1.2813027
  67.0307493  72.7862930   2.0225391  67.4447823  72.5170422   0.5917819
  98.2742977  46.1231709  77.9221725  98.7596893  45.5778885  78.5412884
  97.4773502  46.3681078  78.3924103   8.5339361 102.0193768  54.6417761
   8.4810472 102.9725361  54.5715094   8.0968618 101.8155575  55.4686117
 102.9659462  54.5414257  55.7730484 103.3268452  55.0677204  55.0596046
 102.7811909  53.6913013  55.3738165  41.6894817  77.9648352  34.1666508
  41.5147257  77.0416498  34.3494797  41.8954897  78.3434343  35.0213170
  22.0525789  34.7482204  73.4688377  22.5370002  34.0590644  73.9234114
  22.7059889  35.1742506  72.9140568  50.2422667  98.8295174  22.1215677
  50.4104376  98.6366177  23.0439210  50.0159502  99.7594929  22.1087694
  10.4973912  41.5722704  65.1402283  10.9768355  42.3181248  64.7795868
  10.9821892  40.8055401  64.8347235  16.0227060  43.8149309  27.8150630
  15.2053356  44.2669058  27.6056480  16.3836062  43.5660934  26.9641447
  50.5041456  63.1873131  82.6319790  51.4117002  63.4032583  82.8463173
  50.0012732  63.4875774  83.3890724  41.4358616  41.3064861  71.7428780
  40.9963799  40.6306791  72.2589874  40.7422972  41.9281483  71.5220976
  39.8937488  28.9737654  65.1373434  39.2738152  28.3175373  64.8191023
  40.6444693  28.8996649  64.5481443  56.9976664  93.9185715   8.3906484
  56.1549616  93.7468529   7.9704189  57.2811842  94.7566128   8.0252165
  44.0239286   9.8873013  85.7853794  43.6398792  10.1056933  86.6345215
  44.7137403  10.5389285  85.6597900  25.0568604  42.3973036  56.2737513
  24.8828077  42.5981379  57.1933222  25.4556632  43.1948471  55.9257364
  37.7549672   2.2427735  37.6571751  37.3213196   2.8893608  38.2140470
  37.1069717   1.5465844  37.5492215  49.6823454  13.7923098  77.1472025
  49.6990681  13.2110620  76.3868713  50.3535461  13.4408462  77.7321720
  82.3127651  56.4272547   6.2156302  82.8901482  56.6026354   5.4725909
  82.0492744  57.2942448   6.5240633  88.6509228  73.0532837   2.8374267
  87.9621792  73.4180498   3.3931282  88.2876968  72.2278833   2.5164741
  41.8702793  74.8383427  62.1311569  41.6070318  74.5807838  63.0146742
  41.8151617  75.7939529  62.1338272  38.9900827  61.5413380  42.4658871
  39.2928767  60.9226084  43.1305075  39.4712400  62.3475504  42.6522732
  18.9916754  15.0215113  61.7631817  18.8911664  14.4920027  62.5542259
  18.0952895  15.1972187  61.4770842  51.7022896  23.8202572  72.2688246
  51.8133688  23.9053202  71.3219023  50.8119106  24.1301966  72.4343300
  11.9497502  64.7440052  37.2301340  11.7558527  65.6733322  37.1077251
  11.5944982  64.3202734  36.4488006  34.6826506  46.8563795  47.0349216
  34.4402766  46.5562296  47.9109335  35.6004047  46.6015911  46.9398355
  33.6048222  51.7297268  76.7896938  33.9148235  51.0278893  76.2173700
  34.1713953  52.4735785  76.5849733   9.4446468  52.4311781  28.1829643
  10.3891826  52.3439312  28.0546212   9.2880583  53.3754492  28.1749511
  28.7503052  19.0524745  70.2997446  27.9156303  19.4808602  70.4895735
  29.3733048  19.4665253  70.8969593  60.0398636  37.0620537  74.2867565
  59.3602037  36.5306544  73.8721371  60.8601761  36.7261910  73.9254761
  35.7879376  17.9397666  67.3159122  35.0279975  17.5066495  66.9271564
  36.5194678  17.3503745  67.1322918  36.6377616  38.7365532  75.2791548
  36.6649675  37.8917861  75.7284403  35.8707595  38.6801553  74.7092772
   7.5380230  26.3767600  53.4512949   8.2478559  25.7371688  53.5086679
   6.7404419  25.8604741  53.5676813  44.7697163  52.2716522  49.1981363
  45.4139566  52.4025488  49.8938751  45.0122738  51.4349842  48.8014221
  15.1478815 100.1424789  60.0610209  15.2361751  99.5841980  59.2885160
  14.6302509 100.8889198  59.7591877  18.9380085  34.2183447  64.4955635
  19.1160643  33.5427928  63.8412285  18.3727682  34.8455334  64.0445995
  49.7955704  23.6731267  86.0462666  49.4008732  22.9714584  85.5284786
  49.2018080  24.4156814  85.9353828  57.7716494  23.3690238  37.0998764
  58.3239365  23.4503984  37.8774285  57.3520851  24.2250180  37.0134544
  30.2070236   5.0031698  40.3450537  30.1274800   4.0540394  40.2498913
  29.6095085   5.3606504  39.6882343  52.4835348  44.4548273  33.6411190
  52.2853327  44.2066431  32.7381516  52.8985643  43.6786222  34.0172601
  51.9960642  32.5902629  89.2593098  52.1604586  31.6478467  89.2918110
  51.4491701  32.7113605  88.4831142  37.0913029  40.7031775  55.6106091
  37.5197196  41.1825705  56.3197470  36.5395188  41.3557911  55.1794910
  86.4653397  98.7094784  17.7420378  87.1952343  99.2923641  17.5329471
  85.8134365  98.8894844  17.0646524  62.8563595  95.7107258   5.1982099
  63.4373569  95.0300503   5.5378431  63.4465885  96.4041519   4.9032098
  77.4577077  55.6877555   0.4967102  76.9862301  56.4645861   0.1959213
  76.7769630  55.0253503   0.6151947  39.9607587  17.9579389  72.0251656
  40.4391193  17.1716666  71.7621469  40.6270409  18.5249984  72.4134207
 104.2281723  76.0326958   3.7234971 103.6325932  75.9951591   4.4719046
 104.1411495  76.9267130   3.3927581 108.7614155  24.8292613  76.1292839
 109.3241024  24.1390133  75.7783270 107.9008675  24.6533370  75.7488298
  92.5342560  85.7725906  16.6201365  93.2735920  85.8242512  17.2258997
  92.7301025  86.4243984  15.9470642  16.9591618  40.6861353  90.0930691
  16.5523028  40.8137274  89.2360878  17.8170490  41.1035538  90.0154495
  45.3914642  33.6934662  40.0445509  46.2307882  33.2376599  40.1078129
  44.7853136  33.0335522  39.7079086  55.0147724  86.5500546   7.1551144
  54.2682600  85.9799957   6.9707674  54.6977425  87.1486759   7.8314078
  43.6369562  37.5891089  46.7287350  43.5632086  38.5261297  46.9097996
  44.5297861  37.3641443  46.9904184 103.2091808  20.3920937  20.2165914
 104.0998268  20.6019568  20.4975510 102.6911545  20.4212189  21.0209775
  36.0140872  55.9295416  61.1644030  36.8591642  56.2350941  60.8346891
  35.3755546  56.5297556  60.7793760  38.0174136  42.7186108  78.5225487
  37.5313807  42.1764803  77.9011822  37.5590611  42.5990725  79.3543291
  34.0131688  63.3297586  51.9244051  33.9548182  63.7513161  52.7817917
  33.7889576  62.4143696  52.0918274  38.8212729   2.7988669  57.8910923
  39.3282700   3.5533020  57.5910711  39.4789958   2.1337426  58.0941772
  32.8739786  59.4069242  39.5989871  32.3111320  58.7106323  39.9375319
  32.2665644  60.0946951  39.3264961  65.3347397  36.9266462  73.6537123
  66.2162924  37.0321679  74.0114403  64.9652100  36.1901116  74.1407347
  32.6628518  55.1725864  77.4362993  31.7568684  54.9705362  77.2026348
  33.1840777  54.7799587  76.7360163  22.5751948  51.4907598  78.3675480
  23.3784175  51.4782095  77.8470612  22.8281236  51.1078596  79.2075777
  25.9367323  14.5134568  48.8769436  26.1942363  14.0619552  49.6807289
  25.0085878  14.7121370  49.0006638  -0.0077372  46.3084841  10.4047632
  -0.2199554  47.2363949  10.5056369   0.4546979  46.0795307  11.2109685
  74.1814566  20.7841492  80.0908566  74.2508459  21.3393784  79.3142319
  73.3425903  21.0254908  80.4836464  34.2260456   5.1677239  85.7261467
  34.3379879   6.1037761  85.8920002  33.2823014   5.0234377  85.7951546
  59.7973728  11.3623416  47.3568726  59.2175579  12.0901716  47.1325684
  60.4000187  11.7271519  48.0049133  25.4555488  21.2700725  52.3680878
  24.6730137  21.4282966  52.8961372  25.4123425  21.9268465  51.6730976
  70.2879858  18.1172180  70.4468536  69.4139910  18.1994307  70.8284330
  70.6413221  17.3136318  70.8284760  57.2441292   2.5555375  74.0656233
  56.4752102   2.6393560  73.5017347  57.9329491   3.0337161  73.6039925
  58.9197540  10.0105703  85.1128674  59.8411703  10.1597798  85.3249073
  58.4980011   9.8731667  85.9610939  19.2788303  55.2816534  69.3368435
  19.4594264  55.6835413  70.1866102  19.7228956  55.8473349  68.7051439
  39.4107676  55.2887630  26.7182279  38.8984251  55.3768826  27.5219512
  39.2206001  54.4031239  26.4088559   7.3371124  22.1631670  62.4964046
   6.7970699  22.7105165  61.9263220   6.8559372  22.1307349  63.3232355
  36.8906713  29.0494156  64.4368124  37.5866485  28.4324527  64.2105293
  36.7662406  29.5713687  63.6441517  34.3397355  35.7254601  70.0753784
  34.4912887  35.6808400  69.1313076  33.4163976  35.4961991  70.1808310
  26.0862446  36.4052773  29.7514129  26.0051966  37.1046185  30.3999376
  25.7141829  35.6353903  30.1816154  18.7481081  30.5226636  70.3120947
  18.3316243  29.8530197  70.8546352  19.6738148  30.4840851  70.5525303
  85.9487057  82.9033470   2.4850440  85.5774117  82.6223755   3.3213633
  85.9649754  82.1089649   1.9512583  68.5938931   4.4324517  38.9833665
  69.4777775   4.7726622  39.1220641  68.4461451   4.5260936  38.0422854
  75.7663536   4.5032069  61.9534874  75.2482128   3.8433141  61.4927244
  75.1172686   5.0983733  62.3285818  42.4523449  15.4316068  41.1275482
  41.8786001  15.4595125  41.8932295  41.9920683  15.9461105  40.4644775
  39.3863511  15.9171879  68.8520575  40.0862122  16.0709083  69.4867229
  38.6015224  15.7942235  69.3860579 108.5807610   4.7683457   2.5685376
 108.3280563   4.4375849   1.7065784 109.0777779   5.5650932   2.3830688
  49.9525642  40.1703358  80.3016663  49.5493031  39.9177623  79.4711161
  49.2155743  40.2770901  80.9030724  20.2315402  42.0624495  58.1214380
  20.1055217  41.4020300  58.8027573  19.7962403  42.8439713  58.4619808
  54.0862942  20.3028703  53.4850883  53.8092518  19.6710372  54.1486120
  54.0911484  21.1437798  53.9423418  33.4764457  14.0529954  41.3239384
  34.4184828  13.9306152  41.2063742  33.0872488  13.6983716  40.5245638
  95.8624554   8.0577660   1.6173707  95.9724045   8.6784321   2.3377299
  96.6403580   7.5015938   1.6595882  30.1305723  29.6924424  60.4453182
  30.8900928  30.1745510  60.1183176  30.4904246  29.0940976  61.1000872
  25.5610657  55.6986427  41.6024351  26.0779977  54.9136448  41.7835093
  26.0333276  56.4037943  42.0451117  62.9739285  32.2749496  46.0259533
  62.3022461  32.8863192  46.3281155  62.5105143  31.6843128  45.4321289
  39.1244936  45.7729959   4.3587410  38.7601757  46.6456032   4.5072508
  38.4073496  45.2783442   3.9621788  40.8310080  33.1110907  71.2139368
  40.5475998  33.5882664  70.4340553  40.2180338  33.3829641  71.8970060
  47.6866961  32.4373555  71.6167593  47.0534134  32.2391701  72.3066187
  48.5284615  32.4827385  72.0701981  43.1165838  33.9362383  57.9477549
  43.4666061  34.7907853  58.1996775  43.8576078  33.4829497  57.5457096
  56.4177847  46.8407869  88.9622498  55.7229519  47.4991179  88.9682293
  56.1077499  46.1599016  89.5593357  12.5566578  70.1907063  10.1171315
  12.4262702  69.7132826  10.9364581  11.9092643  69.8192596   9.5178473
  29.0706992  70.7530022  30.5671287  29.3884563  70.8530331  31.4644909
  29.7469974  71.1613369  30.0266504  30.2414107  75.9758139  68.9303732
  29.9994946  75.9613609  69.8563814  29.8183823  75.2010632  68.5601854
  55.2666664  26.6751504  75.1818657  55.6331825  26.6380358  76.0653400
  55.0237942  27.5931931  75.0616932 110.6704712  37.5343919  53.5035992
 110.0522518  37.4319696  54.2271662 110.1278687  37.4871182  52.7164602
  37.0210600  40.2656794  39.9783897  36.5793371  40.7704306  39.2954993
  37.8556275  40.7163334  40.1073742  27.2772241  27.3860168  66.8383074
  26.8933940  28.0828047  66.3059616  26.6122007  27.1962762  67.5001049
  52.1206474  19.6603799  65.5479860  52.1731043  18.7050426  65.5764675
  51.9519424  19.8636663  64.6279621  10.4447377  24.1254210  88.3581257
  11.0113740  23.5543799  87.8394127  10.3299022  24.9056816  87.8156948
  26.1509633  37.7339220  37.0467234  26.4432955  36.8343472  37.1934891
  26.7309928  38.2661152  37.5913048  14.6984744  55.6062222  30.2687573
  15.1558805  55.2455950  29.5091772  15.3043652  56.2545586  30.6276250
  19.4297123  37.3910809  34.5597625  18.6718833  37.8747249  34.2311025
  19.9720752  37.2407484  33.7855053  37.0244503  51.4316797  76.2335587
  36.7083049  50.8007669  76.8802643  37.2954583  52.1898556  76.7511988
  36.9542360  39.2715240  88.3288288  37.9109168  39.2443848  88.3127022
  36.7433000  39.8461795  89.0647030  30.0688124  75.0679684  44.4082499
  29.1452599  75.2046013  44.6194744  30.5076480  75.8542061  44.7330332
  41.9906378  73.5090208  55.5705166  41.8345356  73.0097675  54.7688866
  41.9811773  74.4237375  55.2886677  51.7469263  25.8811450  40.7681322
  51.3389015  25.2922177  40.1333761  52.1495199  25.2979636  41.4116001
  52.4671698  45.6784010  70.0726366  51.6544676  45.2068949  69.8898029
  53.0341482  45.0271749  70.4857540  43.0740738  35.1668024  64.5525026
  43.8111734  35.7607579  64.6943951  43.1637430  34.5055819  65.2387810
  23.0819988  38.8508892  63.9086437  23.7307477  39.3950319  64.3550396
  23.3397937  37.9525566  64.1154528  34.1202664  39.3653250  65.9412861
  34.5323706  39.2783809  66.8008471  33.2742643  38.9276457  66.0359001
  44.5741367  38.7570190  59.3094969  44.7688246  39.6027756  58.9057350
  43.6603212  38.8280296  59.5854235  51.7388248  29.0853429  83.1823921
  51.1848307  29.3412519  83.9198399  52.2958231  28.3895135  83.5314083
  31.0800886  20.4304242  72.5507498  31.3501334  20.7684112  71.6968918
  31.8938732  20.3639913  73.0503225  38.0370784  36.4740157  76.6871548
  38.8911963  36.4711905  76.2550640  38.2347107  36.6488910  77.6072598
  14.9261451  43.8758945  38.2180595  15.7611275  44.0683746  37.7914596
  14.2716455  44.0010452  37.5308895  39.2010260  49.2188501  22.3892140
  38.5096741  49.8607492  22.5511765  39.9741244  49.5862484  22.8176641
  57.5940228  29.5136142  74.3040705  56.8433714  29.9944997  73.9554930
  57.8711224  30.0219464  75.0663328  35.6325626  20.3400540  88.1344700
  36.2986207  19.7123480  87.8541470  35.4479074  20.1034331  89.0433979
   4.2609277  10.6256545  76.2004948   3.5167480  10.1733720  75.8031702
   4.5915231  11.1973190  75.5075741  55.1660490  48.6379766  76.9985342
  54.8188686  48.7031746  77.8881645  55.6521654  49.4526052  76.8708372
  76.4167547  60.1947832  22.4782372  75.6634235  60.5808115  22.0313430
  76.1225319  60.0714827  23.3807111  15.3023827  34.5190287  50.1454020
  15.9191239  34.6301913  50.8689404  15.2463233  35.3857970  49.7431564
 111.3450336 105.1566315  81.4748955 111.1674786 105.3663349  82.3918152
 110.4955769 104.8938656  81.1204720  18.8479424  57.4106455  42.4163485
  18.3181667  57.6762581  41.6646671  19.5756090  58.0324078  42.4281979
  67.2362995  30.7790327  67.4354410  67.1193552  31.6564989  67.0712852
  68.0659723  30.4754472  67.0670557  62.0470858  27.5606370  59.3270016
  62.5914860  28.2674527  58.9801884  61.5489149  27.2491908  58.5713196
  32.9295397  33.1102777  75.4537058  33.8390088  32.8120685  75.4667807
  32.5677156  32.7402806  74.6484613  22.0534348  32.0064521  46.5484333
  22.4742317  32.3945951  47.3155785  22.6903701  32.1196532  45.8429337
   0.0993468  35.8380961   5.8349115  -0.2594207  34.9552202   5.9246254
   1.0047060  35.7604408   6.1357868  47.0246983  43.3405781  83.1705856
  46.1996984  43.5423040  83.6120701  46.9894743  43.8423443  82.3561954
  35.9644270  41.3158274  65.0806904  35.2615905  40.6797695  65.2136564
  36.0836434  41.3460922  64.1314220  28.6283159  36.8970442  35.3021455
  29.3487477  37.4473166  34.9948835  28.9193559  36.5759397  36.1556220
   4.0105832  36.2370682  60.0786877   4.7380835  35.7271719  60.4350328
   3.2304245  35.8536029  60.4793596  70.0400066   7.4760592  79.6295452
  69.4374800   6.7448455  79.4934464  70.7928228   7.2725785  79.0744781
  38.9573002  20.7845783  86.2464809  39.8402452  20.7318211  85.8806133
  38.9749026  20.1952648  87.0005608  15.7688713  52.6518822  68.0199146
  15.6683540  53.5677528  67.7604723  15.2451754  52.1640396  67.3843193
  23.2294869  57.8942728  65.4704332  22.9967785  58.8195229  65.3930569
  24.0360594  57.8924513  65.9858656  41.2499762   3.4825882  28.9648581
  41.0491037   2.5513333  28.8718677  40.4910994   3.8469681  29.4204521
  41.7170334   3.6984396  75.8972406  40.9692240   3.8054940  76.4850807
  42.4800205   3.7140006  76.4750290  26.0597348  55.0310564  45.9088802
  25.7130170  54.5383739  46.6527128  25.3428221  55.0435400  45.2747583
  38.6511970  69.3454456   4.7978550  39.4609451  68.8350677   4.8053303
  38.9370871  70.2459812   4.6444643  57.7498770   8.2704073  80.8508205
  58.5420704   8.3877099  80.3265190  57.6960373   9.0634286  81.3841629
  49.5750284  32.1433377  91.4928532  50.4951859  32.3588681  91.3408947
  49.3604088  31.5118337  90.8062840  13.3636701  22.9427266  36.3243914
  13.8150799  22.9266381  37.1683121  12.6286650  22.3394847  36.4343810
  43.7481356  22.5564528  78.9763737  43.7249899  23.3983684  79.4312048
  42.8275490  22.3194790  78.8641214  69.5575047  62.3330736  27.3981404
  69.2829514  62.9928684  28.0349517  68.7383938  61.9759893  27.0549488
   7.6378864 100.7842731  21.8500113   8.5271186 100.8986473  21.5147257
   7.2109598 100.2170086  21.2080050  58.0586767  31.9814873  79.3405962
  58.6033487  31.8386769  80.1146507  58.5263109  32.6489043  78.8384962
  29.7515488  49.1574430  56.9170523  29.1692305  48.6260509  56.3741302
  30.2891135  48.5198212  57.3868322  65.5639696  15.0147450  44.5926476
  65.4812479  15.6148851  43.8515520  64.7096634  15.0466645  45.0232077
  49.8452950  29.9320388  77.6880836  50.0646591  30.2394795  78.5676241
  49.9133348  30.7122469  77.1377373  27.1994328  37.6748586  49.6053076
  26.3019300  37.9983068  49.5271873  27.7018356  38.4324980  49.9049807
  56.6860676  12.8747833  86.8724346  56.4087343  12.0011532  87.1482754
  57.6013279  12.9331970  87.1465206  48.6599350  64.1062880  52.1079350
  49.2832947  64.8326588  52.1016550  48.2935238  64.0974665  51.2236881
  48.6360312  41.4000416  78.1153440  49.2220974  41.7448330  77.4416351
  47.8909588  41.0488319  77.6277494  99.2163181 105.2815819  18.2309377
  99.3303967 105.7501411  17.4040902  99.5654297 104.4067478  18.0606294
  32.5213218  47.4013090  43.1081057  33.1937003  47.8785849  43.5942650
  31.7293477  47.9282618  43.2145357  30.3009939  63.7097454  65.3890133
  31.0297060  64.2913008  65.1722097  30.2362561  63.1173801  64.6399212
  97.6242733  68.8562965   7.1047920  98.2572556  68.1478786   6.9877177
  97.3938656  68.8206244   8.0331624  24.8038268  18.3657801  88.6834240
  24.8066640  18.2986379  89.6382618  24.8212957  17.4582946  88.3794498
  32.0914888  12.5819397  60.3126478  31.6124058  12.7956891  61.1132860
  32.4718118  11.7203927  60.4838848  64.5865059  34.8589730  75.5433273
  63.6464643  34.9807525  75.4102135  64.7599220  33.9715862  75.2291489
  61.8102312  22.7509427  84.1350937  61.6510582  23.5115695  84.6939659
  62.4366903  22.2195911  84.6264648  76.1745024  16.5317965  53.4162140
  76.1747599  15.9268916  52.6743793  76.9896698  16.3417149  53.8805437
  32.1421003  55.8106518  67.3456621  32.3551464  55.0784874  67.9242611
  31.4942002  56.3199902  67.8325176  73.6419916   9.6639675  70.0987530
  74.3811369   9.1034031  69.8628139  74.0191460  10.3267431  70.6772995
  44.6009779  49.8961449  68.5358763  43.9276743  50.3475285  69.0449429
  44.5691586  50.3122807  67.6744509  21.2859845  34.7583103  68.8111544
  21.7361665  35.6027865  68.7904835  21.7774248  34.2404532  69.4487619
  34.2641497  44.5401716  37.5846553  34.7748280  43.9231586  38.1088090
  33.7101960  44.9932528  38.2203293  66.5498352  33.2676625  34.4196653
  66.4934349  32.3150849  34.4948101  65.9501028  33.4876108  33.7068033
  53.4337282   9.2310739  41.0063601  53.8534784  10.0295854  41.3263941
  52.9259825   9.5154548  40.2463961  54.0247393  39.4513202  55.2920246
  54.8135853  39.1356134  54.8512459  54.3501806  40.0405741  55.9725380
  10.1654947  18.5159564  47.1073532  10.0004506  18.9750564  46.2838125
   9.5232260  17.8063154  47.1188498  68.4418154  32.6376724  85.2180767
  68.8208771  32.7259398  84.3435764  67.7862835  33.3335018  85.2663231
  95.0947189  97.1355438   8.4135604  94.1990566  97.4307156   8.2495666
  95.0905704  96.2102032   8.1686801  15.9503424   8.2325697   8.9686835
  16.5758586   8.8758802   8.6353475  16.0591185   7.4735439   8.3957261
  39.7239375  17.1258688  58.3973837  40.1533890  17.5041056  57.6300907
  38.8232279  17.4463594  58.3500338  44.9738073  31.2084365  78.4595108
  45.6103611  30.9295940  77.8012705  44.8031664  30.4210377  78.9763451
  19.5863950  38.7977862  75.2337265  19.7986269  39.0433002  74.3332195
  20.2015257  38.0944657  75.4415369  18.0864382  67.7974987  67.5612020
  17.4951231  67.0467854  67.5063467  17.9280233  68.1640959  68.4311104
  43.9469957   7.3306769  73.6869144  44.3313694   7.8823805  73.0056572
  43.0997229   7.0644975  73.3298397  58.6276582  58.6658551  91.5055607
  59.1883710  59.3702431  91.8306296  57.8172734  59.1047884  91.2470103
  37.0190454  14.5680797  59.4765139  36.6631222  15.2204967  60.0797558
  37.8034806  14.2389059  59.9153042  35.5415916  21.0967875  41.4577293
  35.8472705  20.7304931  40.6278992  34.6908665  20.6829047  41.6033220
  95.4920578  50.0662327   1.3777496  95.0368118  50.6208563   0.7442025
  95.5351830  49.2075777   0.9569386  51.7010593  38.2054758  58.9867926
  51.0176373  38.7758112  58.6348152  52.1936369  37.9190826  58.2176495
 110.2131691   1.3814704   0.5620560 110.6206575   0.5867212   0.9063801
 109.2739120   1.2392537   0.6795391  34.3054533  14.4045901  64.7162247
  34.1234159  13.5326385  64.3658018  34.4643307  14.2595136  65.6489325
  33.6595321  55.3010988  39.3238187  33.5128975  55.2632427  40.2689600
  32.8067112  55.5364084  38.9583635  80.7857418  63.7126684  13.5154521
  81.6719055  63.8036823  13.1652248  80.6288719  64.5313978  13.9858842
  70.3071833  90.0696564  11.8019438  69.9308538  90.9266472  12.0023918
  70.8072662  90.2098083  10.9978878  73.2347441  30.4947019  15.2195776
  73.9538050  30.0229764  14.7992671  72.6420546  30.7170010  14.5015728
   9.7350132  83.6003685  25.2506995  10.4659164  83.9997959  24.7790313
   9.3230200  84.3288612  25.7152414  94.7448730  81.7100334   2.9052284
  94.0869999  81.5135193   2.2382885  95.5426121  81.8919373   2.4084811
  36.5287590  54.3575621  31.4668751  36.3118196  54.9514151  32.1855593
  35.8646894  54.5350695  30.8007431  48.2400465  28.3077049  53.6155748
  48.1671047  28.6956143  54.4876051  49.1125059  27.9142380  53.6006737
  53.3053827  25.8216786  70.5068541  53.6370325  25.5129361  71.3500118
  53.7364197  25.2623916  69.8606062  12.8587365  57.4632883  53.2722950
  12.5515330  57.1279383  54.1145563  12.6082659  58.3871269  53.2765722
  85.8296585  97.7295017  24.2535257  85.2602863  97.2920704  24.8865366
  85.3030396  98.4556770  23.9194822  49.5493889  12.7875876  56.5201330
  49.6821928  13.6443210  56.1144209  49.0076542  12.3074031  55.8938932
  23.4961677  82.6711750  64.8020077  24.1478181  83.1710720  64.3103886
  22.6587296  83.0672264  64.5610285  71.6223526  75.9610033   9.7564238
  72.2153568  76.1621523   9.0324676  70.9347963  75.4251289   9.3610215
 104.8686218  91.9855213   1.3876705 104.3288517  91.7794418   2.1508273
 105.7681847  91.9430065   1.7120293  18.8472009  11.7305040  69.4917870
  18.9270949  12.6615560  69.6991348  19.5424259  11.3116169  69.9991608
  77.2647953  70.6040573  11.3241553  76.7310715  71.3959360  11.3896906
  77.8853750  70.6727648  12.0496845  46.1490631  47.3565388  78.2740545
  46.4442778  48.1361675  77.8036690  45.1955891  47.3736811  78.1914616
  53.1923342  22.6482916  65.1097918  53.0313301  22.5604653  66.0492563
  53.9750767  23.1961107  65.0511169  21.5870452   2.6516515  17.5799668
  22.2147703   2.6580480  18.3025658  22.0215774   3.1402224  16.8808877
  50.0633001  44.3533230  69.5369101  49.6560383  44.0764856  68.7160969
  49.3511820  44.3335104  70.1762295  86.2756348  26.3629723  84.7620964
  86.0590744  26.1584759  83.8524151  87.2236919  26.2422824  84.8155594
  52.4144888  48.4329557  69.4305944  52.5181246  47.5152731  69.6822929
  52.5670719  48.4408426  68.4856701  43.1525230   0.7808772  87.0631504
  42.6597500   0.2222215  87.6642418  43.4244919   1.5267362  87.5979042
  48.6166096  75.9888315  65.3656578  48.7903261  76.8490648  64.9834919
  48.2234669  75.4851007  64.6529675  58.9275837  36.1232233  78.0037355
  58.1073380  36.0344028  77.5184155  58.7883425  36.8800831  78.5729504
  49.2665720  64.7336912  65.7224798  49.4864511  64.5746994  66.6404152
  49.1068697  63.8622761  65.3600407  20.8558583  54.3512344  88.4836483
  20.0766110  54.8992872  88.5766315  20.6231976  53.7171984  87.8053379
  41.8113756  33.5866141  60.4986238  41.5116215  32.6804638  60.5712605
  42.3384619  33.6012268  59.6997547  49.7983932  23.9042473  80.4857731
  50.5680370  23.6670256  79.9684668  49.7711515  24.8603892  80.4499722
  42.3573542  12.0702195  77.5662088  42.0922089  11.1838925  77.3205423
  41.9578886  12.6323760  76.9024038   4.7723803  15.2097440  50.9060335
   5.1142788  15.9593999  50.4188442   4.7149330  14.5084143  50.2571344
  79.3245840   1.8013078  32.1168208  79.6432638   2.5120026  31.5604138
  80.0341034   1.1588065  32.1145725  37.4651146  38.6141849  78.6809397
  36.7848921  37.9802155  78.9081192  36.9869828  39.3561125  78.3105803
  50.4961729  39.4648433  76.6688442  50.8343935  40.3024101  76.3521147
  49.7357845  39.2886496  76.1147690  57.6584482  56.3234043  67.5627995
  57.9702377  57.1869421  67.8335667  57.4027967  55.8942080  68.3792973
  60.3383493  32.1513939  73.9438629  59.6264839  32.0230246  74.5707607
  60.8834648  31.3701296  74.0371847 112.2966368  58.4939861  74.3010521
 112.3632672  59.2967892  74.8180580 111.3773552  58.2375097  74.3743467
  56.4253616  54.6619463  65.6223345  56.1507654  54.3589878  66.4878082
  57.0803547  55.3365946  65.8014107  59.6393013  48.3024597  64.4773054
  59.2033052  48.3925533  63.6299467  60.5725193  48.3676767  64.2746258
  54.3939734  49.4114113  63.5117054  54.5661592  49.7598553  62.6369667
  54.5820332  50.1414013  64.1016006  52.7143764  44.2838144  57.7654648
  52.6301479  44.0702057  56.8362141  53.0727577  45.1713371  57.7756786
  57.2318363  55.4304266  62.0022821  56.3372850  55.7698059  61.9734240
  57.7394342  56.0480833  61.4759016  24.0548921  62.2298765  40.1992655
  24.2676616  62.7523661  39.4259834  23.9419985  62.8729725  40.8992052
  38.5796976  40.1688385  48.0563211  38.7261319  39.5997930  48.8119555
  37.6722312  40.0008774  47.8022957  55.6918526  50.7649803  75.0115585
  56.2284231  51.4290524  75.4443836  56.2581825  50.4081011  74.3273497
  35.9635019  59.8113585  66.1228991  35.6986737  60.5921030  65.6365490
  36.3487124  60.1514435  66.9304800  16.1410642  48.0787039  29.0567446
  16.5924728  47.2437382  28.9330626  16.8396139  48.7008953  29.2595720
  61.6847706  36.1102223  76.9594622  60.9227991  36.0289717  77.5330687
  61.3479757  35.9157252  76.0848331  67.9478359  14.9064970  89.7080898
  67.2517729  15.5078864  89.4433975  68.7354183  15.4497194  89.7373390
  79.0926123  74.6821976  10.6861126  79.4777155  74.3055964   9.8948497
  79.8439455  74.9016142  11.2370944   7.0946807  91.1903381   2.7248904
   7.9571539  91.2104893   2.3102023   7.2363997  91.5723324   3.5910469
  58.1315327  48.7054491  62.4612045  58.8599730  49.0230036  61.9275665
  57.4005175  48.6297655  61.8479156  66.5785027  83.9676571  43.7184858
  65.6224394  83.9515781  43.6747217  66.7945957  83.3883190  44.4491816
  49.2141962  55.0121927  74.3554449  49.1915274  54.0559053  74.3202353
  48.3586121  55.2592945  74.7063589  36.4864349  59.5458364  43.5685492
  36.2168670  60.2239084  42.9490519  37.4431181  59.5659018  43.5443020
  93.2988644   9.2371088  30.2093244  93.6694622   8.3642983  30.0785995
  92.4505520   9.2058241  29.7670341  32.7559018  64.3923092  61.5450573
  32.4516106  63.9934540  60.7298565  33.5316038  63.8853168  61.7847967
  52.6196098  16.7108476  70.4482937  53.2697058  17.2901356  70.8458281
  51.7851210  16.9963109  70.8202696  57.3546362  72.0677471  13.9342439
  56.7222929  72.6279974  13.4842467  57.1858978  71.1909723  13.5892439
  29.4467258  41.7349529  55.9229326  29.7596741  41.3407612  55.1087379
  29.7638416  41.1489248  56.6101265 108.0431843  55.3470945  48.1314135
 108.9342117  55.0424623  47.9596472 107.7074623  54.7438574  48.7944603
  58.7751102  11.7521477  75.1669073  58.9169931  12.1344662  74.3009186
  58.5614395  12.4988997  75.7263184  55.8910608  51.8248081  79.7351885
  55.4424334  50.9985447  79.5555830  56.5725422  51.8779087  79.0651131
  44.0176105  55.0128603  71.3981581  44.3198776  55.6105232  72.0820236
  44.7238922  55.0113058  70.7521009  59.2350864  50.5031061  60.5091286
  59.7778893  51.1481190  60.0557423  58.3994293  50.5230904  60.0427532
   5.0578624  13.6345220   3.1033435   4.7603750  13.3005965   2.2570415
   4.2821205  14.0456355   3.4847122  67.2407722  27.5511718  63.8255405
  67.6552200  27.7554536  64.6638346  67.9391575  27.1571946  63.3027840
  76.1034870  81.0646439   9.3876588  77.0178652  80.7817078   9.3974829
  75.6054020  80.2721786   9.5880365  28.2564497  63.5815716  51.0492373
  27.7111816  63.8873005  51.7741108  27.7710247  62.8444910  50.6786871
  60.7338953  27.8010440  64.1975784  61.0513592  27.0359874  64.6773100
  59.8066139  27.6197648  64.0442133  87.2924709  93.1256294  74.2872286
  88.2049274  92.9304790  74.0737581  87.2330379  94.0795517  74.2350674
  68.6321783  18.3626628  44.0956640  68.4248924  19.2461860  44.4000435
  69.5869350  18.3503425  44.0284300  42.8783751   7.7832741  84.7308636
  42.9007387   7.9903316  83.7965965  43.3137703   8.5249662  85.1510525
  53.4498215  27.9438925  53.1936502  52.9037428  28.6562514  53.5261774
  53.5170889  28.1123519  52.2537947  65.5420208  65.3792858  56.4033937
  66.2877846  65.8672047  56.7526817  65.4253531  64.6509933  57.0134830
   7.7186733  99.5929718  90.1577282   8.1527770  99.3713760  89.3339062
   7.2690880 100.4184818  89.9770546  60.3671217  51.2609863  67.8082895
  60.7864714  52.0461035  68.1603813  59.5335960  51.5724087  67.4554634
  26.4762807  31.8598700  41.6746807  26.1487269  31.7244363  42.5638342
  27.3667693  32.1896577  41.7951155  53.9109755  28.3664489  90.7281303
  53.1062222  28.7146568  90.3442669  54.2068291  27.7037525  90.1040077
  23.9104342  46.9366360  55.5142593  23.3799267  47.3422766  54.8285103
  24.0267086  47.6270247  56.1670065  43.0053186  53.9279842  47.8727579
  43.5430098  54.7141027  47.7771568  43.5573864  53.3182955  48.3623886
  45.1756334  42.9410315  69.7971487  44.8356247  43.7653399  69.4490910
  44.4692707  42.3111153  69.6540308  40.1456547  56.6533995  79.0881968
  39.8867726  56.3285875  78.2258129  40.7136774  55.9686947  79.4414139
  53.7026215  53.2749128  67.1404028  53.4314775  52.7646971  67.9035521
  54.0723228  54.0776587  67.5080347  54.5206738  35.9026837  72.1668005
  55.3450966  35.5770826  71.8054914  54.0284586  35.1126957  72.3901272
  59.7534370  26.3176012  47.8144073  60.0177526  25.3979754  47.8400278
  59.8892450  26.6308451  48.7086487  89.9388313   2.5286618   3.5442811
  89.8585415   1.8626480   2.8614846  89.8076820   3.3586586   3.0858737
  39.0047479  84.8320389  68.3107042  39.0263152  84.8678970  69.2669868
  38.9567351  83.8979816  68.1070709  63.8445616  73.0611420  64.7439289
  64.2413616  73.3485937  65.5662155  64.2217684  72.1957636  64.5856094
  56.6259193  68.0991364  73.9848948  55.9637880  67.6310635  73.4762526
  57.1417570  67.4079800  74.4001627  27.4942541   5.1988590   0.9374172
  28.3592415   4.7890177   0.9448538  27.2548699   5.2697855   1.8614826
  76.7749786  73.7909603  55.1435661  77.2256136  73.8732910  54.3030977
  77.4754667  73.8233995  55.7951021  74.9536085  63.1559801  91.4046097
  74.0921450  62.8819513  91.7192841  75.5083275  63.1444216  92.1846008
  58.7794399  64.6516180  66.1384726  57.9935694  64.2353344  65.7844305
  58.9590836  65.3744984  65.5373049  69.2607355  59.8808575  90.7274723
  70.1287603  60.1021910  91.0647869  69.1237783  60.4890823  90.0011539
  70.2482176  88.0354977  69.3037462  70.8446074  88.2482719  68.5859203
  69.4371557  87.7696323  68.8704681  72.2002411  92.4623013  56.0824156
  72.1748590  91.5466785  55.8045197  72.8550625  92.8671646  55.5136204
 107.5895214   3.2813805  87.4497414 107.2592354   4.0148479  87.9685593
 107.2050285   3.4090969  86.5825176  71.3141727  94.6862316  83.2992935
  72.1813440  94.4566917  82.9652882  70.7629728  94.7388077  82.5185013
  67.2151041  93.7026024  80.9828091  67.1227026  93.0916595  81.7138672
  68.1486750  93.9130497  80.9630775   6.2117070   4.7190502  10.4844558
   6.0880208   5.4399359   9.8669958   5.5557269   4.0702137  10.2296364
  41.4109039  79.2645550  75.4539299  41.0855913  78.9389038  74.6146679
  42.3337126  79.4614315  75.2930117  52.6988316  64.6034861  89.3682575
  51.8004751  64.9331951  89.3463993  52.9373503  64.6194744  90.2951241
  61.9995165  75.6176805  82.4205017  61.3009501  76.2054777  82.1328735
  61.8689442  74.8208952  81.9063950  55.9754086  52.1488285  68.8529396
  56.3252211  52.9189396  69.3010330  55.0302124  52.1971655  68.9961100
  34.2092156  40.0510120  15.6276727  34.0474749  39.7287345  14.7409892
  35.0259972  39.6272111  15.8912802 112.3784970  41.8836164  75.4758215
 111.6775555  42.4530268  75.1585150 113.1576108  42.1767521  75.0032949
  51.4691067  78.9568615  62.4209261  51.5279341  79.1637611  61.4882088
  52.0188904  79.6143007  62.8472376  59.5049524  67.4768114  67.4001503
  58.7828112  67.8185701  66.8729496  60.2427149  67.4272108  66.7923021
  70.5895281  68.2919216  48.1587887  70.6379175  69.1407585  48.5985231
  70.5489349  68.5068941  47.2269249  70.0214911  92.9858875  89.4508743
  70.2993298  92.0744896  89.3592453  69.1369915  92.9314137  89.8127079
  15.9187686  10.8443832  10.2755642  16.1295748  10.0315332   9.8161429
  14.9700022  10.8112085  10.3979385  59.9537325  80.0944138  61.4257145
  59.8554993  79.1556978  61.5850449  59.3103361  80.5041313  62.0039988
  54.1366196  41.3909531   4.1965473  53.3537340  41.9084072   4.0079656
  53.8256550  40.6830645   4.7608396  25.7702017  35.4299378  21.9699788
  26.2764764  35.8798981  21.2936258  26.1679292  35.7113791  22.7938938
  59.9351263  93.3898926  70.9947062  59.4181824  93.8260841  71.6720104
  60.7500553  93.8905048  70.9558010  56.7335081  90.6718254  63.5104847
  57.1971655  91.2943745  62.9504108  57.4152374  90.2983379  64.0690422
  58.4452724  76.4417696  47.5197077  57.5277138  76.1713266  47.5540590
  58.4132957  77.3984289  47.5232553  30.0272369   4.2097539   1.6840760
  30.7230091   3.7172493   2.1194762  30.4859829   4.7694907   1.0575946
  58.9754629  70.9114933  64.0325451  58.5618305  70.3877115  63.3464003
  59.7715235  70.4288578  64.2552137  12.5122297  38.3031321   2.9212755
  11.8373847  37.7388120   3.2985777  12.6592445  38.9772058   3.5847858
  83.2075787  86.8408966  77.6272249  83.2561398  86.3127708  76.8303823
  83.9102554  87.4838161  77.5316572  46.3401481 101.7093547  90.3617501
  46.2939670 102.6129039  90.6743126  46.7747876 101.2331040  91.0692154
  48.2221222  18.5906005  12.8134835  47.3547363  18.6070466  12.4090028
  48.6588621  17.8387821  12.4131572  17.7723217   0.7545675  77.3607683
  18.0489373   1.2577893  78.1265926  18.5839701   0.5751090  76.8861580
  73.6475515  85.1696205  48.2813883  74.4547367  84.7577953  47.9730415
  73.0682278  84.4361782  48.4879494  54.5283651  70.4723454  78.2044935
  54.1131687  70.6597281  77.3626328  54.4871759  69.5194292  78.2850313
 109.2357540  99.5210266  10.2716243 109.9296093  99.3845654  10.9167445
 109.1729927  98.6863995   9.8071975  15.6726837  12.2390199   3.0121678
  14.9902177  12.8974795   2.8821605  15.3874934  11.7473125   3.7823123
  56.0620499  76.2122631  64.5451117  55.8694506  77.1244287  64.3281174
  56.9394302  76.0624123  64.1929960  53.6455870  18.6280143   3.1225950
  53.3949184  19.5358050   2.9513863  54.5038319  18.6914873   3.5416582
  35.5318451  18.0519450   2.3059766  36.2719297  17.6767540   2.7831951
  35.3769231  18.8962114   2.7295867   0.8319647 102.8181744  20.9212661
   1.3669283 103.5875320  21.1165571   0.2886183 102.7002144  21.7004275
  20.5516386  34.2474246  20.1420474  20.2825451  33.4018278  20.5009222
  20.7926106  34.0570951  19.2354393  42.9687309  81.6267872  40.4174614
  42.5857401  81.5351009  41.2898970  43.9076519  81.4997005  40.5534983
  52.2487879 102.1344566  82.7644920  51.8103933 101.3259792  82.4991417
  52.9577065 101.8450928  83.3388901  17.8753769  97.0064545  65.3187323
  18.1472194  97.2733974  66.1968374  18.6593521  97.1180916  64.7810030
  38.2831860  55.5171824   9.6941704  37.8669238  55.9732723  10.4255652
  37.5543523  55.2379513   9.1400355   4.1733789  97.8482151   0.4440141
   4.6546170  97.8223801   1.2710418   3.2732424  98.0531311   0.6969830
  18.9525151   5.3665686  51.9158411  18.0887854   5.0354940  51.6696835
  18.8152421   6.3008702  52.0722628  78.5055494  54.9099016  77.9098225
  78.8105297  55.7634068  78.2176352  78.9149523  54.2807770  78.5038137
  53.5591173  96.3419151  54.5438004  54.2381334  95.6708717  54.4739723
  54.0307617  97.1700764  54.4547701  74.9282074  77.4446344  81.9050598
  74.0224361  77.7500248  81.9555187  75.3867340  78.1333971  81.4238262
  83.5615540  71.3425255  75.6960106  82.7971649  71.5930033  75.1771593
  84.2891979  71.3600779  75.0743580 100.3354645  18.4439576  47.1457100
  99.4042873  18.2265162  47.1889067 100.5376720  18.4465146  46.2101173
 102.3423195  72.7035332  55.2684355 101.8546486  71.8935061  55.4176283
 102.3478603  73.1401157  56.1202574  19.2837644  81.7638397  70.5028391
  18.8289905  81.4095402  71.2669611  18.8285041  81.3795280  69.7536612
  34.4717383  94.6770668  40.0889015  33.5714889  94.3891907  39.9375439
  35.0007367  94.1187668  39.5190883  81.8672371  62.0527840  77.6868105
  81.9333744  62.9521656  78.0076933  82.2642136  62.0792961  76.8162155
  97.8497887   5.1665711  53.4356594  98.6173248   4.6107444  53.3008337
  97.4708939   4.8563254  54.2580986  59.1213894  61.2107706  83.1925869
  58.3244610  61.4438581  82.7163410  59.6703720  60.7738304  82.5414848
  42.2958040  84.3135452  82.6307392  42.0231724  84.2542648  83.5463715
  43.2467175  84.4157505  82.6700974   0.0921429  59.0897226  88.4901333
   0.5923233  59.8882246  88.6587811   0.6809057  58.5438919  87.9689217
  60.3634787  59.8219919  57.2083139  61.1796951  60.2546787  56.9577026
  59.7073460  60.5186605  57.1889734  60.8178139  70.9291935  89.3931961
  60.9116030  71.2456751  88.4947109  60.6943178  69.9843216  89.3026447
  54.6121931  86.3991833  70.4400396  53.8297606  86.0329628  70.0278378
  54.4692230  86.2746239  71.3782692 106.4037609  58.0647087   9.2297018
 106.8115044  58.7984514   8.7697029 106.5086365  57.3215342   8.6356270
  54.6150923  85.2727604  58.8471889  54.0807343  84.5063972  58.6389256
  55.1124382  85.4425430  58.0471563  61.8695354  90.3806305  50.6190538
  61.4638281  90.7774830  49.8482513  61.7128468  89.4420147  50.5157042
  50.7093239  89.2237759  64.9000788  49.8145199  88.8985538  64.8011208
  51.2431955  88.6152363  64.3893003  97.2472000  79.8945093  47.6282167
  96.7442417  80.6008339  48.0336380  97.9800892  80.3373432  47.2004318
  79.6041727  89.7491264  89.5271206  80.5579948  89.7988033  89.5902061
  79.3651533  90.4674053  88.9413071  97.0457840  91.8034458  47.6520443
  97.8370094  91.9815826  48.1604385  97.2876835  91.0752773  47.0797777
 107.2342300 101.5888500  84.6091270 107.3529434 101.1664963  85.4598713
 106.6483212 101.0025787  84.1303444  77.7186918  46.1351395  62.8605938
  77.7633715  45.1873827  62.9870653  77.5989628  46.2455177  61.9173479
  82.7779007  55.5973816  73.2498789  82.9278660  55.0011110  73.9835024
  81.9178200  55.9797287  73.4239531  43.9738035  88.3897591  79.8861265
  43.5812569  87.8292370  80.5554199  44.4694996  89.0423012  80.3808117
  63.9845800  66.7183447  77.5785923  64.1128445  66.2476492  76.7550468
  64.0388155  67.6429558  77.3369598  74.1640711  86.7960930  88.1518364
  73.7895298  86.9549847  87.2854042  75.1048231  86.9276524  88.0338955
  61.5126228  68.7129879  48.4125519  60.8374977  69.2663717  48.0198622
  61.2549543  68.6362505  49.3312168  53.0203533  76.9845676  72.3836803
  53.7009239  77.4100018  71.8620872  53.4978676  76.3859367  72.9580069
 101.5725708   6.8227935  73.6188841 102.0833015   7.3833174  74.2030048
 101.0778236   7.4336970  73.0727625  42.5663614  28.3001709   2.0416610
  41.9562197  28.6144567   2.7088803  43.1285620  29.0527105   1.8576832
  86.4817810  65.5099678  68.8329792  87.0799255  65.8164978  68.1514359
  86.2608147  66.2977600  69.3297529  67.8546476  84.1843224  50.1300907
  68.3921242  84.2982388  49.3462753  68.3119249  83.5147572  50.6388330
 112.1181609  54.3676758  54.4945002 112.2173510  55.2252007  54.0809250
 112.5796380  53.7654686  53.9108753  98.0443478  35.6225491  10.6177950
  97.1623516  35.9556580  10.7831502  97.9162788  34.9007034  10.0023508
  33.8134408  33.0857420   4.7170305  34.3323445  32.4274302   5.1791984
  34.3174529  33.8945031   4.8070878  90.9563160  21.8400002  40.7839823
  91.0018921  22.2559309  39.9230790  91.4105129  21.0050392  40.6709337
  57.7534342  89.4643784  79.9013042  56.9374561  88.9644623  79.9236870
  58.2232475  89.1220760  79.1408157  49.3373632   1.2300190   5.9271520
  49.7581720   1.0060421   6.7572033  48.4990406   0.7686612   5.9514654
  61.3956070  81.4641857  66.1219072  62.3094463  81.6570854  66.3314724
  61.2480068  80.5880451  66.4780235 103.0497360  92.5331306  80.7831669
 102.6452065  92.0707226  81.5171814 102.3146248  92.9292107  80.3152275
  42.2369242  65.5712271  59.6670580  41.3646173  65.5088091  59.2779303
  42.2431374  66.4219093  60.1058435  93.0949497 105.7455063  11.4231718
  93.6863232 105.3536701  12.0657992  93.4491444 105.4755592  10.5758762
  93.2248878  50.8852386  61.6586590  92.9227638  51.1152363  62.5373268
  93.2958508  51.7238283  61.2026262  63.6296463  87.5825500  82.7226925
  62.8332663  87.9685593  82.3579884  63.3332586  87.1148491  83.5034847
  95.1263046 104.9423981  60.6914949  96.0506535 105.1797867  60.6176853
  94.7485542 105.6213284  61.2505865 101.6243172  90.4369164  48.9999628
 101.8899822  89.9596500  49.7860146 102.0317459  91.2980175  49.0934277
  84.6298409  57.3229790  72.2390079  84.0408134  56.6170502  72.5053930
  84.2147923  57.7016115  71.4640236  61.4968300  73.9762926  80.2596569
  60.8906698  73.6107302  80.9039879  61.6647720  73.2553387  79.6528101
  54.9406433  83.3231831  37.8950214  54.5847940  82.5518322  38.3361936
  54.9322367  83.0929089  36.9659710  51.6345835  86.8490314  89.5452023
  52.5236320  86.4952850  89.5714951  51.7533016  87.7981567  89.5812511
  85.5460739  57.0950317  51.1703348  85.2974129  56.1887074  50.9887552
  85.3262234  57.2234440  52.0930529  87.2389603  64.4181871  36.9296098
  86.5365505  63.9539576  37.3849583  87.6124859  64.9979401  37.5933814
  11.5374172  20.5936432   4.1507405  12.1220839  19.8625958   3.9508295
  11.6983211  20.7831645   5.0750911  83.9139080  78.6158848  77.1870041
  83.2738590  78.4429073  77.8774023  84.7461224  78.3135986  77.5507069
  58.7781096  83.3176804  85.4238129  59.2405891  82.5108051  85.6503010
  59.3460989  83.7479687  84.7846889  70.8438253  89.8284817  45.8461761
  71.3076639  90.3042984  45.1572037  71.1369419  90.2389145  46.6597223
 111.2387188  -0.1257830  79.3785191 111.6012867   0.6747216  78.9990807
 111.8178947  -0.3259497  80.1138496  98.3843517  45.3322935  68.5500002
  97.9289436  45.5508089  67.7369261  98.9768887  46.0692978  68.6981583
  70.6489944  68.0308914  56.5794086  71.3289738  68.3859205  56.0068607
  70.1099586  68.7878275  56.8090153  43.7027740  38.3522224  15.8268213
  44.5878458  37.9888725  15.7975221  43.3840370  38.1361270  16.7031443
 109.5765018  12.7746224  38.5484433 110.2344322  12.8129232  37.8542590
 108.8259220  12.3401499  38.1433535  46.3446569  33.0804133   8.0166906
  46.6644716  33.0212426   8.9169401  46.1884212  34.0146732   7.8789335
  82.1222210  68.9585114  73.9373636  82.8143883  69.4426203  73.4870672
  81.4384651  68.8480234  73.2766819   8.5143346  32.4847174   6.8193668
   8.2502270  32.9320645   7.6233321   9.1688251  33.0629086   6.4274883
  47.1891642  58.4651375  58.2779169  46.6862917  59.2755604  58.3589411
  46.5291691  57.7872324  58.1327200  25.1674199   7.8616267   7.9887593
  25.2518749   6.9721544   8.3321816  25.0448608   7.7440321   7.0467490
  32.5410008  37.2374988   7.3934364  31.8151784  37.7440310   7.0289701
  33.2896757  37.4593258   6.8398023  72.3151207  56.3413239  58.4677362
  72.5139856  57.0101213  57.8124523  72.6565027  56.6997433  59.2870188
  97.0778179   1.4626423  86.3751221  96.5651131   2.2703028  86.4075089
  97.7744389   1.5952229  87.0180702  48.8166380  52.1314955  87.7597809
  49.7547626  52.0416594  87.9273605  48.7497711  52.2100163  86.8081570
  85.1413822  56.3878345  80.6857872  84.6717262  57.2125769  80.5614471
  85.9109497  56.6260290  81.2027740  96.4490700  85.3886700  65.9704304
  95.8837318  85.9071159  65.3978586  96.8837452  86.0349655  66.5268373
  65.9807920  76.8881321  79.3770456  66.4492893  77.6567793  79.7025013
  66.5650892  76.1538219  79.5657730  68.4110880  76.8882561  53.6429596
  68.1711388  77.7910519  53.4341240  68.1862879  76.7885542  54.5680332
  41.0127497   8.5709399  12.7079642  41.0013390   8.1147879  13.5494077
  40.3749943   8.1000143  12.1715629  71.8451405  67.9171228  60.9393740
  71.1426592  68.0576086  60.3045321  72.6307440  68.2488394  60.5046034
  37.4267459  16.9960201   3.9299783  38.1172132  16.3344014   3.9717954
  37.8202724  17.7777243   4.3176740  42.5732374  12.4993455   4.8399773
  41.7008209  12.3661005   5.2106041  43.1404018  12.6233423   5.6010193
  50.7923317  87.3430634  78.3662653  50.7337236  88.2980061  78.3960724
  51.5985107  87.1676064  77.8809643  76.9773769  73.1288624  26.0885620
  76.6659069  72.4054670  25.5445766  77.5479078  72.7137280  26.7353892
  56.9717407  43.5909748  16.9974661  57.5592947  43.6971378  16.2493050
  57.2498083  42.7711868  17.4059498  44.2620039  95.0345898  52.4023151
  43.3317709  94.9331856  52.2007751  44.2765236  95.4297829  53.2740021
  69.6730280  67.6697254  78.7954187  69.5982981  68.2233572  79.5726871
  69.1511822  68.1188154  78.1304169 104.4478321  71.6232777  75.2038527
 104.1173840  70.7556581  74.9708796 105.1793671  71.4498138  75.7962990
 110.2624321 100.8713818  82.2122955 110.1016903 100.0806999  82.7272797
 111.2141037 100.9045029  82.1150208  74.0507174  72.7627230  49.3492699
  74.7659540  72.6520681  48.7228346  74.4870472  72.8704357  50.1944017
  62.8037739  70.4675102  70.6376648  62.2109509  69.7170067  70.5984879
  63.1004572  70.4911518  71.5474176  52.3825312  71.4672565  53.4138680
  51.6117477  71.8922424  53.7900591  52.0692062  70.6071329  53.1341457
  92.4283123  73.3841610  81.5983391  91.8455410  73.6307955  82.3165131
  93.2077694  73.9249134  81.7259026  67.8477621  77.3873138  61.8262529
  67.1661997  77.6014566  61.1891890  67.5585461  76.5635300  62.2186375
  83.0283546  59.5903397  60.4254246  82.8435421  59.0826416  61.2155628
  83.7183285  59.0982389  59.9804640  71.8260956  81.0652447  72.7754211
  71.9134331  81.6203499  72.0005274  70.9459591  80.6952286  72.7070189
  66.1575127  62.9927492  48.8993597  66.1383772  62.8241158  47.9573250
  65.4209900  63.5848236  49.0516996   9.1888493  63.2853127  67.5509310
  10.0366735  62.9207897  67.8049994   8.9991713  63.9408875  68.2221031
  70.3225231  74.2257166  85.1334763  70.5290222  75.1264143  85.3831482
  69.9421978  73.8396645  85.9224892  82.1691513  87.3646164  68.4015799
  82.6543140  86.7692375  67.8302908  82.7148151  87.4435234  69.1840458
  30.2024198  10.8117139   8.7860399  30.5243301  11.2593782   9.5684725
  29.4573927  10.2960086   9.0946096   3.5391042  16.4475334  57.6292944
   3.0953330  15.6006169  57.6743698   3.2392228  16.8315160  56.8053675
  64.3619633 102.7681446  90.6396961  64.0345573 101.9122219  90.3632355
  63.8070822 103.3971977  90.1785755 107.0332527  61.5591288  61.2360048
 106.5252209  62.3081684  60.9244347 106.7177486  60.8217525  60.7135439
  59.7353077  79.7181225  84.3097687  59.0034914  79.8177624  84.9186611
  60.4712582  80.1455688  84.7478199  64.9596357  74.4553041  81.3536072
  64.6501446  74.7791004  80.5076790  64.1601419  74.2748308  81.8480396
  75.2949667  72.0319986  80.8055019  76.0941362  71.9168997  80.2913761
  74.9268579  71.1512613  80.8763981 111.5820599  83.2668495  90.3356647
 112.3193645  83.8734722  90.4036999 111.1316776  83.5264683  89.5319366
  72.7336550   6.8421012  83.4393311  72.0635653   6.3584352  83.9223194
  72.2511053   7.5360578  82.9901123  36.4986968  79.1768646  54.9502611
  36.0444903  78.3346415  54.9259901  37.4186897  78.9490652  55.0842571
  80.3187656 100.9468555  64.2904425  80.3129005 101.9016361  64.3581057
  80.9468079 100.6635094  64.9549055  62.4571753  78.5641718  49.9663925
  61.6770220  78.0809546  50.2385855  63.1730890  78.1579876  50.4549742
  81.0568142  67.7913094  58.3213949  80.2716637  68.3375883  58.2846165
  80.8215618  67.0008039  57.8356028  47.9804325  71.7384720  40.4139566
  48.9335346  71.7396021  40.3254986  47.6593256  71.5052462  39.5429087
  73.0985355  81.4295769  63.7508154  72.2747135  81.5865993  64.2122173
  72.9852390  81.8620777  62.9044533 104.0934277  99.3153572  70.8302689
 103.4672737  99.8435020  71.3254690 104.7913265  99.1218376  71.4561510
  29.6506071  71.7705679   4.5473668  29.9713302  71.0070372   4.0673789
  30.3759861  72.0139551   5.1225370  74.8225307  93.0828285  42.1030951
  74.4901514  92.2405243  42.4133825  74.4771194  93.1638145  41.2140703
 110.3886414  67.7143145  86.2854671 109.9228764  68.5343552  86.4492512
 111.2927628  67.8972006  86.5411091  85.2061653   5.3906924  84.0152168
  85.1740742   6.3402152  83.8985634  84.7295856   5.0406623  83.2625008
  83.0815983  81.7314625  67.8150129  83.3249283  82.1768188  67.0034170
  83.2049370  82.3918629  68.4968519  77.5235605  28.8778305  11.0867691
  78.1213379  29.4922733  11.5126276  76.8907547  28.6486244  11.7673969
  84.9724007 103.1742096  72.6755857  85.2582836 102.4125481  72.1712303
  84.7163200 103.8170433  72.0142031  32.4451995  46.8977880   8.7070364
  32.7014828  46.0481596   9.0657514  32.8012228  46.8998814   7.8185123
  56.9454145  78.0674076  75.7063437  57.5519896  78.1273985  76.4443874
  57.4415874  77.6140881  75.0247717  92.6774597  99.2842579  63.5416412
  92.3815632 100.1905632  63.6270142  92.6795578  98.9475727  64.4376707
  74.8837376  79.8223400  43.1213236  74.0559578  79.3637419  42.9774523
  74.7240686  80.7105637  42.8022575  83.6146450  90.5519295  48.4061623
  82.7145290  90.7839870  48.1777477  84.0742207  91.3903999  48.4506178
  37.0946717  31.5062332   2.0045638  37.3661804  32.3777151   2.2927208
  36.5355873  31.6685748   1.2447608  79.9376154  75.6068993  36.0620141
  79.6642542  74.8983383  36.6446352  79.8732758  76.3967371  36.5988994
  76.2005758  67.5865793  66.0711384  76.6475201  67.2458839  65.2962828
  75.6351376  68.2819891  65.7351017  90.9592628 104.9859810  76.8996906
  91.7048836 105.5522823  77.0986700  91.3536167 104.1720676  76.5862131
  92.5740910  63.5700941  76.8792486  93.4302044  63.2605696  76.5834761
  91.9635296  62.8870726  76.6018867  46.6727638 102.9024410  46.7807579
  45.9461927 102.4073792  46.4023018  47.3058510 102.2347355  47.0445681
  60.3884315  81.8261147  72.6827097  59.9570084  82.3643875  72.0191002
  60.7049942  82.4542713  73.3318949  99.1044617  85.1622009  44.0759039
  98.8803864  86.0260010  44.4221163  99.6138859  84.7494221  44.7732878
  96.9846725  71.9434357  89.8667622  96.2102890  71.4534092  89.5903015
  97.6821423  71.6356325  89.2879486  43.8337946  84.4043636  67.9354286
  43.0571556  84.9530983  67.8261375  44.3486071  84.5573807  67.1430969
  55.2439785  76.9662380  59.2496920  55.0827551  76.0546064  59.0064478
  54.3721247  77.3321486  59.3987179  80.7942377 104.9048674  52.3114634
  80.2673129 104.9525019  53.1091547  80.8398555 103.9702203  52.1100044
  93.9824486  71.1655903  48.2718468  93.7479115  71.6544056  47.4829960
  94.6291828  71.7171764  48.7119818  89.0685177  71.7227983  10.8239818
  89.7709656  71.0779190  10.7406950  88.2632160  71.2104082  10.7520759
 104.3382931  69.7252226  88.4292793 103.7483120  68.9721823  88.3962536
 104.7800636  69.6464777  89.2747784  71.1317062  91.6013527  65.1716137
  70.4015017  91.7292690  64.5660877  71.8246555  91.2183571  64.6336889
  79.2604065  84.5917892  62.2114515  78.6318254  83.9884377  61.8151093
  80.0760269  84.0927696  62.2560120  76.9373894  57.6621056  74.9282932
  76.5946054  57.8942060  75.7913446  76.2308121  57.8847313  74.3221474
  76.4269638  86.2995529  42.9336262  75.5701351  86.7230034  42.9862356
  77.0522404  87.0004463  43.1180429 103.1784630   3.4967652  51.2519646
 102.5407696   3.5485643  50.5399990 102.8895473   4.1580155  51.8808603
  12.1711993  21.6223907  68.4955454  11.9238758  21.0803270  67.7463961
  11.6960180  21.2415171  69.2340374  72.4905968  80.0690269  90.4066563
  72.0251083  79.4348431  89.8613453  73.0408716  80.5548668  89.7923374
  78.2261801  74.4142056  79.0646410  79.1043997  74.7897196  79.1274786
  78.1581402  74.1144896  78.1581259  79.1015291  65.3819942  90.0467968
  78.6584806  65.0195074  90.8139610  79.9767160  65.6093311  90.3608036
  99.6203709  53.1686020  49.5245600 100.2306080  53.8778687  49.3226004
  99.8559475  52.8951168  50.4110909  37.3069882  57.1746635  15.5205536
  37.4750638  56.4539194  14.9135029  37.4964881  57.9640627  15.0134361
  99.8983669  19.4910622  74.2941761  99.7453594  18.6763644  73.8155413
  99.8066902  20.1777434  73.6336470  69.9780941  90.7381344  52.8866005
  69.1344500  90.8877754  53.3133364  70.2391529  91.6003609  52.5631142
  85.4365730   4.1464806  54.1233015  85.2901745   3.5038072  54.8173952
  85.9249687   4.8513174  54.5486307  77.6692820  87.7023888  54.2997599
  77.1626329  87.7758026  53.4909678  78.4317684  88.2630157  54.1564655
  73.5939550  92.3263550  35.9726882  74.2451000  92.3596001  36.6735053
  73.3710909  93.2427692  35.8091569  52.2223234   6.6868937   8.7380081
  52.7073526   6.4385003   7.9510629  51.3278437   6.3892871   8.5719705
  78.6484241  89.5860291  46.3356400  78.6414480  89.5575428  45.3788900
  77.9403877  88.9977169  46.5979433  61.2951899  63.2127953  57.2156143
  62.0201683  63.3566952  57.8238344  61.6682911  62.6675987  56.5229464
  76.8170595  58.4394789  88.6036777  76.0345173  58.9326906  88.3575153
  76.8287659  58.4706640  89.5602989  86.0178471  95.0845337  27.4822021
  85.8115387  95.6176281  28.2499743  86.9267559  94.8152256  27.6148176
  59.1222095  63.5111952  84.9042034  59.2065191  62.7738142  84.2997265
  60.0242424  63.7551117  85.1117420  69.1641188  82.1959686  63.4672499
  68.3516836  82.4793243  63.8866377  69.8282051  82.2778416  64.1517305
  59.0017414  62.0884180  56.8293285  59.6850109  62.7531290  56.9160986
  58.2878590  62.5365400  56.3756895  93.8982677  75.9145832  76.7633438
  93.2816029  76.4075756  76.2221289  93.9231682  76.3914251  77.5929403
  44.6731806  88.4241199  72.1356869  45.1095819  89.2130661  72.4571705
  44.3707180  87.9784107  72.9269457  73.5364866  86.6730785  72.4872208
  74.2066860  87.0270443  73.0718374  73.3562469  85.7982635  72.8313637
  83.7407589  91.0732079  64.0446949  84.0987301  91.1431503  64.9296761
  84.4628716  91.3337517  63.4729481  99.6319962  93.2872963  83.8616180
  99.5086765  92.3453999  83.9793777  99.2274189  93.4778595  83.0153084
  64.1843176  68.5192490  80.3303432  65.0021839  68.2029438  79.9465799
  63.5051537  68.2233715  79.7241879  45.4340601  30.3708386   7.3275244
  45.7751274  31.2019134   7.6580042  44.5830154  30.5941343   6.9505751
 106.0244083  28.3033156  74.4572163 106.9099140  28.6250901  74.6262503
 105.5023193  29.0952039  74.3285036  62.3583698 100.8709049  86.2978458
  62.7325010 100.1590824  85.7786465  62.0857525 101.5215778  85.6509018
  84.3987656   4.3770146  67.9551172  84.1292763   4.9722689  67.2556305
  84.8904228   4.9290296  68.5632086  75.1860332  83.1668472  37.6826715
  75.9764862  83.7048244  37.6380014  74.8277712  83.3393860  38.5533667
  57.9359629  93.6479027  91.4456390  57.4533382  93.6069615  90.6200299
  57.2602489  93.5904725  92.1211726 108.3461857  90.6807899  55.4317141
 108.5632324  89.9631596  56.0267973 107.8677559  91.3065338  55.9755707
   2.2824529  23.5762620  57.2766495   1.8008201  22.9880834  57.8582907
   2.6895082  24.2133141  57.8637648  61.5238285  94.6652508  83.3550358
  60.8758020  95.2139378  83.7968922  61.2807608  94.7052002  82.4300766
  78.4332275  81.4885426  88.4376049  78.8218880  80.7912636  88.9657879
  78.9817238  81.5296555  87.6542187  99.9223328  98.9206982  56.4349937
 100.3375816  99.4490910  57.1166086 100.3795719  98.0805588  56.4713621
  54.9662304  88.6457348  79.8443794  55.0783920  88.1824684  79.0142965
  54.5105600  88.0204582  80.4079628  18.6079586  35.2894807  50.8880472
  19.3666410  35.8603930  50.7668447  18.7749004  34.5437050  50.3116941
  66.0976791  79.9950361  89.5205498  66.1050892  80.7214832  90.1438141
  66.0994864  80.4166985  88.6612320  73.3826971 101.8856335  83.1789303
  73.3924055 100.9742737  82.8864193  73.6156654 102.3898792  82.3993778
  63.2999849  95.5908012  40.7226896  63.1587267  95.8249092  39.8053694
  63.5795212  94.6757221  40.6960297  81.0461044  91.7479992  71.8589449
  80.7805157  92.6074696  71.5318346  81.8285179  91.9221497  72.3821306
  70.8906412  90.9763050  74.6024323  71.4300060  90.2185631  74.3762541
  70.4083443  91.1751175  73.7998819  48.2651758  21.6197348   1.5137088
  47.9828072  21.3094854   0.6533332  49.0576601  21.1167932   1.7014465
 103.5239601   0.7085082  49.1966677 103.4735966  -0.0522850  49.7753668
 102.8468323   1.3018896  49.5216751  68.0108738  84.9651241  88.5060787
  67.2194624  85.4405117  88.7588692  68.3534718  85.4518318  87.7564335
  65.9363031  69.9633837  47.3839951  66.3021851  69.2315960  47.8808355
  66.4630270  70.7182789  47.6465368  98.1956863   2.0072603  43.8869762
  97.9036045   1.1585102  43.5544920  98.9378548   2.2404400  43.3292723
  84.2616558 102.3719883  57.1486187  83.9638805 101.6195011  56.6374207
  84.8835850 102.8200340  56.5752935   1.7980629   9.3515062  75.4998255
   0.9378575   9.0346539  75.7752895   1.6071337  10.0343740  74.8568058
  43.9094687  96.9026566   4.3490633  44.1957045  96.0019302   4.1974288
  43.3263063  96.8444633   5.1058757  77.7326250  68.5463905  71.0932875
  77.8113842  69.1714525  70.3726482  77.0095205  68.8817549  71.6232729
  67.3236704  71.0875750  86.0862732  68.0628586  71.3003731  86.6559601
  66.5752220  71.5257883  86.4912796   5.2647913  97.3551273  63.4726143
   5.0135881  98.2528973  63.2554960   5.3175479  97.3456478  64.4283104
  87.4884415  68.6780357  51.9041586  87.3106384  69.3981171  52.5092173
  87.5150490  67.8991938  52.4599743 111.7583370  76.4884806  60.2605629
 111.3737011  77.3377466  60.4774237 111.7509270  76.0043287  61.0862589
  87.4864674  99.3556595  79.9513245  86.8858242  99.2266750  79.2172813
  87.6313972 100.3014183  79.9788761  63.4778118  47.0434237  19.7255802
  62.9201078  47.6053286  19.1875613  64.1332531  46.7029715  19.1167128
  59.9899387  23.5140848   1.3714603  59.4456720  24.1157246   0.8634877
  60.2596378  22.8454256   0.7418647  35.8927155  38.2059336   9.4087118
  35.3605819  38.8255286   9.9078792  35.2627325  37.7328110   8.8651049
 101.2797832  96.5415001  53.8971329 101.5443039  97.4614048  53.8915825
 101.5346050  96.2137985  53.0346346  94.2925262  90.4294968  86.1259270
  93.8575840  89.9995422  85.3895855  94.7635937  91.1630630  85.7306862
 108.2987690   3.9005688  53.4707546 108.7092113   4.7062689  53.1567287
 107.6751137   4.1928142  54.1354942  57.2610664  77.9404926  71.2859631
  56.5249872  77.6836586  70.7305765  57.0263433  78.8110733  71.6072559
  94.9533558  54.8849821  87.1722507  95.3241062  55.5562496  86.5993881
  94.7237110  55.3545952  87.9741001  83.1535816  64.2956352  34.8201180
  82.3455429  63.8047647  34.6706128  83.2389641  64.8568678  34.0494299
  73.7784433  84.4392300  57.2620344  73.3444834  84.6987343  58.0747890
  74.6460009  84.1432571  57.5376797 102.2917652  54.3810368  70.4786444
 102.1844006  53.9139605  71.3072252 101.5157509  54.1470003  69.9694681
  41.5838099  56.5668344   2.0070782  41.9791269  57.0739079   1.2979755
  40.7255411  56.9693375   2.1397404  72.9884720  86.3324070  51.9600964
  73.5559607  85.7317352  52.4431992  72.1982765  86.3987160  52.4962139
  72.1605253  97.7303600  54.5009518  71.8032074  98.6106873  54.6174192
  73.0709124  97.8014851  54.7879505  57.5930357  99.1291046  40.9943438
  57.7357244  98.2433128  41.3278961  56.7058945  99.3513870  41.2768221
  85.3534698  97.7707386  63.3039713  85.5534267  97.2544670  62.5231314
  84.7756481  98.4661865  62.9897976  88.1752968 103.4861374  59.6703053
  87.3040962 103.4532452  59.2751455  88.6627007 104.1032314  59.1245270
  81.5320778  75.0333738  62.9925871  81.9077492  74.7167349  63.8140774
  80.5864048  74.9462032  63.1123686  80.7443047 102.6989555  47.5064135
  81.6524029 102.9738522  47.6329708  80.2247143 103.4015083  47.8971672
  93.6838436  94.0355015  90.2385902  93.9570522  93.1192207  90.1937008
  92.9249859  94.0879154  89.6575451  85.7204914  93.1921196  72.1295738
  86.0083675  93.3315754  73.0317450  86.4948368  92.8526020  71.6808510
  65.6319761  68.7819529  53.1457472  65.8921051  69.2524624  53.9376974
  64.9477673  68.1800222  53.4386158  51.8089628  83.4641743  77.7488470
  52.1584368  82.8317451  78.3766460  52.5157928  84.0984440  77.6291466
 106.8350506  23.3882999  58.1385231 106.5335751  24.0845370  57.5549126
 106.5022850  23.6376214  59.0006924  77.3828125 104.2051506  71.6716719
  77.5687456 103.3971119  72.1499348  78.1225061 104.7783089  71.8731117
  35.1586485  11.8693674  61.2120295  34.8636675  11.0574603  60.7996893
  35.0138521  12.5422049  60.5467796  60.1975727 100.1800251  63.1481791
  60.7939291  99.7113991  63.7321186  60.5278635 101.0783863  63.1392145
  91.2681103  91.7715168  59.7942495  91.8709469  91.4940834  59.1044283
  90.5901432  92.2670174  59.3348360  90.1944733   1.2527083  59.7131443
  90.8765888   0.9967804  60.3339911  89.7018909   1.9365548  60.1669645
   6.5130335  57.9547501  56.4805031   6.7156518  57.2788906  57.1273375
   7.0528352  58.7021399  56.7379093  52.5330591  74.2326593  64.7591734
  52.4285603  74.8382568  64.0253067  52.1528769  74.6942282  65.5066013
 107.5813675  16.6255200  70.5695343 107.6490974  17.2988939  71.2464476
 107.5998878  15.7987094  71.0514832  17.0276141   0.5525324  63.5865736
  16.5417886  -0.1057315  63.0896902  16.9399714   1.3544388  63.0713081
 102.7340126  38.1232476  56.2166405 101.8008423  37.9943705  56.3863611
 102.7714634  38.4447050  55.3158140  74.0286779  88.2616806  64.2626858
  73.4185219  87.6591587  63.8373566  73.6165428  89.1211891  64.1753578
  57.5838184  33.2627225  16.1320889  57.1284580  33.9174891  15.6027877
  57.4706745  32.4438262  15.6495535  85.3950405  84.6627331  88.8303947
  86.0873699  84.2679882  88.3002186  84.6331310  84.1016960  88.6855984
 106.5685463   0.7587961  56.3023996 106.3974667  -0.1594111  56.0929728
 105.7190228   1.1889753  56.2050152  80.4424858  90.6237793  40.0045252
  81.1277485  91.2872124  39.9238396  79.8366308  90.9828281  40.6527853
  92.6758957  82.4106026  67.6038599  93.1761360  82.3790741  66.7883825
  92.8055191  83.3011150  67.9300785 101.4195633  64.7536278  81.8772125
 100.6088829  64.3837786  81.5275669 102.1118546  64.3534803  81.3510513
  86.3050079   1.1561241  48.6361742  85.6953335   1.5015170  49.2882681
  87.1509743   1.1406057  49.0837622  12.8712451  36.5817642  71.0568666
  12.7468920  35.7112813  70.6786776  12.9954159  37.1557832  70.3010130
  74.7970915  89.7861671  54.9295902  73.8486147  89.8278999  54.8075962
  75.0974035  89.1686535  54.2627192  97.4974346 102.5867748  63.3806276
  98.0060196 103.2203960  62.8745556  98.0972767 102.2901249  64.0650463
  53.7165785  21.2324977   8.7705529  54.0256405  22.1384096   8.7768060
  53.1519556  21.1667371   9.5406860  60.4413700 102.0395088  51.9605589
  60.3920460 102.8385544  51.4358282  60.8484459 102.3167324  52.7813339
  68.0658770 106.3179302  75.3816080  68.5027742 105.6920147  75.9591722
  67.1821213 105.9667492  75.2725983  83.2918644  83.2691383  88.0119610
  82.4590302  83.5642529  88.3801079  83.2854080  82.3199654  88.1354618
  60.5699778  73.9677763  63.6904860  61.2325859  74.6512127  63.5900164
  60.7632875  73.5696793  64.5392418  48.3946562  59.4132280   8.4872764
  48.5960484  59.8563099   7.6630485  47.6765060  59.9220896   8.8635051
  70.2844334  47.6677561   6.7595989  70.8559847  46.8999434   6.7641526
  70.8506870  48.3894777   7.0329136  22.3054004   2.7319381  71.4248800
  23.1978583   3.0724540  71.3632393  21.8072915   3.2496488  70.7923460
  31.7033339  94.5307255  65.9205151  31.6346622  93.5957813  65.7271147
  32.2081900  94.5708370  66.7327595  21.6578794  43.1815863  91.3125420
  22.2563052  42.6543999  91.8418694  22.0917392  44.0313005  91.2352085
  85.3767300  70.8268166  68.7779713  85.5797482  71.3881826  68.0297232
  86.2231064  70.6707382  69.1969204  70.5910969  84.8860264  56.4522076
  70.6661797  85.0070286  57.3987579  69.9212885  85.5145168  56.1827898
   2.5246185  57.6105499  58.7983227   1.7580977  57.5054312  59.3619108
   2.6020479  58.5563803  58.6732578 110.4163265  71.5906811  64.7745562
 111.0845947  72.0774555  65.2569389 110.4657459  71.9354105  63.8829565
  31.1661506  35.3251600  20.6138849  30.4135442  35.9011602  20.7481980
  31.1280704  34.7071648  21.3438606  61.2907648  97.3960781  54.7772932
  61.1125851  97.3428822  55.7162571  60.8762360  98.2133484  54.5007658
   8.2927245  18.6691093  62.9849958   8.6699945  18.4996235  62.1217585
   9.0223306  19.0097272  63.5025692  91.8996906  97.8166962  81.5860558
  91.9277477  97.1755028  82.2962093  90.9673500  97.9265499  81.3992500
  34.6415758  12.8466463  12.4810827  34.4231987  12.5515246  11.5970886
  33.9054918  12.5557208  13.0193913  65.8431864  90.0056744  53.9872265
  65.5539513  90.7102203  53.4074020  65.4376316  89.2171192  53.6267567
  58.3751869 100.8728409  65.6294823  58.7035894 101.7275238  65.9085798
  58.6529827 100.7959270  64.7167158  89.3743515  87.9071808  69.0564966
  89.6611786  87.3110104  69.7482729  89.2293835  87.3417282  68.2978964
  57.0794106  57.9212570  85.7414246  57.8950644  57.8189659  85.2510357
  57.1892118  58.7428093  86.2201977  35.1697636  99.2763138  32.7640414
  34.8220849  99.9255657  33.3754492  35.0061154  99.6507168  31.8984342
  67.8287506  92.8217602  65.7510996  68.1249857  92.1707726  65.1149464
  68.4458113  92.7437305  66.4786816 105.1323128  24.8346591  63.3961964
 104.6417999  24.5008254  62.6450777 104.5614719  25.5015469  63.7778139
  67.0069075  61.4202976  83.9360905  67.3620510  62.0049906  83.2665920
  67.7608538  60.9112930  84.2339420   2.6563776  95.7933998  78.2302332
   2.8289077  95.1595020  77.5340796   3.0708066  96.6011143  77.9267836
  93.2314587  93.5767078  49.4708252  93.8865185  92.9127884  49.2555809
  93.2725334  93.6535263  50.4240513  85.0627708 102.0504665  83.9371490
  84.9241066 102.9042721  83.5272503  84.5350456 101.4458084  83.4154987
  97.6033115 102.0460320  81.1771679  98.1851101 102.1576214  81.9290257
  98.0387497 101.3901997  80.6326389  48.5505867  20.4411459   9.5236933
  48.5615349  20.9856820  10.3108346  47.7164555  20.6469393   9.1016704
  57.8642988  99.7453117  61.5039158  58.1640100 100.1659775  62.3097944
  57.7553892 100.4661655  60.8836460   7.4429101  18.6970949  50.0764465
   7.1405023  19.2211068  49.3346977   6.6393000  18.3997381  50.5030870
  75.3832769  81.5937233  84.9453163  75.2534914  80.6585026  85.1026344
  74.9507475  81.7579365  84.1073513 101.5304852  80.8603191  74.4804907
 101.5134811  79.9112034  74.6034193 102.0469379  80.9895897  73.6850071
  34.0204978  25.3623271  90.1777267  34.8025203  25.6885934  89.7325039
  33.8722467  25.9855390  90.8889580 103.0112362  60.6270361   5.9540844
 103.6271763  61.0764074   6.5328050 102.2791958  60.3880548   6.5226209
  83.1999302  73.3215666  42.7937984  83.1122398  73.8334560  41.9897413
  82.4844933  73.6271334  43.3514833 108.2437801  62.8716803  77.1195793
 107.4709225  62.5386143  76.6635132 108.4008598  62.2375584  77.8191853
  84.7522354  82.5067997  62.1184492  85.6533718  82.3725224  62.4119473
  84.7284889  83.4183121  61.8272161 110.4658318  54.8163223  75.9279966
 110.0377750  55.2895403  76.6414833 110.8886433  54.0710497  76.3546419
  24.2817926  19.5333052  74.2031336  24.5888543  20.4363298  74.1225624
  25.0790191  19.0200484  74.3343878 109.4255257  84.0386486  74.5776463
 110.0131512  83.6594105  75.2311802 109.7235680  84.9434185  74.4838953
  44.3614006  42.3425388   2.8815648  43.6591244  42.8698921   3.2622743
  44.0606213  42.1480894   1.9938968  18.6423552   6.7383385  62.3930264
  18.0281782   7.3556054  62.7905226  19.3298745   7.2906536  62.0208740
 102.5579071  44.4505644   9.7225928 102.1368504  44.2629099  10.5614817
 101.8406868  44.7231913   9.1503078  78.4698439  98.3549118  55.2642107
  78.1611681  98.8941669  55.9923267  78.2955027  97.4555111  55.5415440
  82.7167892 103.2098007  54.7464943  82.2712994 104.0511513  54.8460054
  82.2195339 102.6084423  55.3008795  82.5129986  94.3881035  42.4576616
  83.3953762  94.5568371  42.1272421  82.4273109  94.9645042  43.2170343
  56.7932940  46.0396767   2.6490009  56.5623569  46.7548561   2.0561992
  56.0137796  45.9163713   3.1906572  60.4721594  75.7281733  88.3525658
  60.5316162  75.7618809  87.3978138  60.5275249  76.6430855  88.6284351
  15.0951123   2.9458961  66.7391205  14.9781799   2.3294546  67.4620008
  16.0279560   2.8961176  66.5304184  59.8023558  75.3267765   2.3054186
  60.2331781  74.7106457   1.7129636  59.4684315  76.0167027   1.7320663
  72.8521490 100.6246185  75.1468420  72.7593279 101.3898373  75.7143450
  72.3767757 100.8585644  74.3496513  55.4956865  79.5473528  50.2747631
  54.7137403  79.7778130  50.7764339  55.2981138  78.6867809  49.9051523
  51.9230175  96.6928005  62.6329899  51.8240929  97.0720482  63.5062742
  52.1746254  95.7833862  62.7938938  77.6310062   9.2682749  77.0410681
  78.0589437   8.9032018  77.8155470  77.0071554   9.9049687  77.3898745
 108.6954117  77.1411514  47.0731735 109.5090675  77.5055027  46.7247057
 108.1388950  77.9041243  47.2293758  72.8106737  82.8711033  68.3419657
  73.5263300  82.4509335  67.8649759  72.8189325  83.7780666  68.0360651
  73.6156225  69.3922663  85.4326439  74.3094349  68.8034821  85.7296085
  74.0790129  70.1662254  85.1125050  29.0243602  20.3134394  15.0139678
  29.9510026  20.0743794  14.9934864  28.6702204  19.9700129  14.1936779
  76.7652321 102.2382927  47.1488142  77.1683645 102.6601887  47.9075766
  76.8268061 101.3013744  47.3349047  80.9057522  72.6414394  58.0371714
  80.2359867  72.4453354  58.6922932  81.1077881  71.7942095  57.6401615
  81.6592979  73.3789253  65.3062344  81.3648605  73.9415503  66.0224676
  81.7929840  72.5230360  65.7134342  71.0638523  86.0740662  84.2516327
  71.2338209  86.5240955  83.4241009  70.1344728  85.8479404  84.2148113
  67.6620817  96.9559288  72.6376247  68.5997105  97.1076393  72.5190449
  67.5558424  96.0115910  72.5228548  24.8087764  16.3731730   4.8308820
  24.4012332  16.3679647   5.6969732  25.7086277  16.0870767   4.9878821
  14.8384869  15.7907891  71.5715837  14.3613112  16.3334739  72.1993017
  15.5250812  15.3718150  72.0905066  86.6728210  57.2947502  70.6053066
  86.0663795  57.4273491  71.3339186  86.1327744  56.9204044  69.9092865
   4.3299755 101.0466671  76.8177748   4.2850077 101.8216038  77.3778534
   4.7111714 101.3644886  75.9992981  71.0583775 105.6905462  84.7350597
  71.4317219 105.6194619  85.6135750  71.7434780 106.1131816  84.2171383
  45.4297543  65.5971336  89.5394421  45.6447172  64.9643993  90.2247620
  46.2174320  66.1342001  89.4536972  56.7358875  25.6663609  31.0697675
  56.4203882  26.3721991  31.6341114  56.4247894  25.9014392  30.1955891
  11.0964882   1.5170714  65.6379032  11.6727948   1.0328685  65.0465918
  11.4870536   2.3892859  65.6920481  35.1815820  29.7265434  74.8368883
  34.6297526  28.9779186  75.0633335  34.9133134  29.9618721  73.9486980
  91.7735577  85.7073402  60.2822638  91.9881821  85.5446529  59.3637323
  91.6788197  86.6580105  60.3413391  74.2369795  88.5280037  68.1415939
  73.3804035  88.3679771  67.7454805  74.2720795  87.9282379  68.8867664
  83.6108017  18.5912633   2.5073984  82.8227043  19.1330993   2.4681859
  83.7516499  18.3076370   1.6040993  49.7324371 103.6572075  69.9996138
  49.3107414 103.5558033  70.8529139  50.4185438 102.9898262  69.9906969
 111.7411599   9.7692746  78.8835096 111.5341652   9.5427644  79.7901917
 110.9930631  10.2891648  78.5897446  85.5872154  80.0581741  69.0198755
  86.2058830  79.6687078  68.4019756  84.8731518  80.3828526  68.4713078
  66.4673424  78.7224627  82.6989365  66.7019033  78.1848812  81.9424915
  67.3046398  78.9318371  83.1128597  89.4969559  81.6392899  64.6726036
  88.5691452  81.4183426  64.7537422  89.9178028  81.1755180  65.3965044
  20.2559876 101.8907452  81.4337635  21.0010695 102.2110844  81.9421577
  19.5968008 102.5800800  81.5145397  95.9234715  83.8315678  89.1626358
  96.2448025  84.7329044  89.1864967  96.5909195  83.3522606  88.6717033
  11.1597013  16.4259148  44.5853043  10.5620062  17.0035434  44.1106081
  10.6132007  16.0130286  45.2539587  62.3564339  95.9643269  44.4039488
  61.7844152  96.4395905  45.0065660  62.2547579  95.0453663  44.6517420
   3.6951876  20.3953457  75.2428818   3.4942916  20.7937741  74.3960524
   2.9605421  19.8049545  75.4101181  25.7630730  99.8181820  41.2508345
  25.6136465  98.9716530  41.6718912  26.6467857 100.0675106  41.5212393
  11.8641233   0.9739660  76.9910288  11.3025570   0.5990177  76.3125849
  11.6379189   0.4885985  77.7844286  21.5176344  25.4276633  59.3049765
  21.7836690  24.5161319  59.1842842  22.0316982  25.9144974  58.6608028
  86.1325455  97.2721386  58.6227989  86.4112759  98.1307888  58.3045816
  85.9006405  96.7869473  57.8309393  86.7096233  92.6059914  49.7059965
  86.7736626  92.3778343  50.6334019  87.6006317  92.5026703  49.3718481
  73.9257860  62.3213387  81.0034657  73.6898327  61.7111111  81.7021751
  73.6118650  63.1714201  81.3117695 112.2616291  83.6436272  56.4816952
 112.6350498  84.4381523  56.8631697 111.8573570  83.1899834  57.2212934
   5.7799900   1.5272202  60.5421114   6.1231756   0.6800328  60.2579832
   6.5453005   2.1018611  60.5599737  52.4310923  32.4579740  12.6046717
  52.2332716  33.3852553  12.4733436  53.2823277  32.3329163  12.1851563
  80.9572315  44.2739582  22.2960711  80.8685970  43.3943939  22.6631379
  81.5714741  44.7170019  22.8814411  69.8033905  79.7333336  41.3215923
  69.2336035  80.3391075  41.7955256  69.9065161  80.1289940  40.4561138
  76.3623905  82.7044201  64.7595072  76.0130930  82.9522991  63.9034796
  76.8937159  83.4541130  65.0276089  97.7538204  82.3365784  76.4453840
  97.1198559  81.6286564  76.5600681  98.1131172  82.1967411  75.5692625
  46.4645720   8.6219710  52.4127436  46.3835001   8.7556291  53.3570957
  45.8469248   7.9174912  52.2166586  46.9945669  61.6508150  18.5276854
  47.3529387  61.2844181  19.3361139  47.7601814  61.9670391  18.0480278
  80.5464172  75.5714512  86.8541622  79.8692799  74.8994064  86.7763138
  81.2560749  75.1421976  87.3320389  20.3733253   6.7328525  49.7165632
  20.3884864   6.1797160  48.9355087  20.5755186   6.1357671  50.4368687
  69.6904612  22.8184295   4.2896140  69.7856951  21.9494152   4.6794593
  69.7794390  23.4226418   5.0266629  78.4193182  36.8774605  13.3771157
  77.8177881  36.8652225  12.6326406  79.0307570  36.1619258  13.2027912
  74.1231394  81.9497776  66.1973286  74.9627495  82.2928810  65.8914232
  73.6812735  81.6534233  65.4016161  56.4073467  72.7230453  78.0210590
  55.5814791  72.2425318  78.0783415  56.6527033  72.8870153  78.9316320
  78.2374382  91.8553925  43.9083052  78.3312273  91.8446159  42.9557705
  79.0867758  91.5596008  44.2359638  68.3100653  99.7179127  32.2458363
  68.9508867  99.2546654  31.7064023  67.4936008  99.2357349  32.1149921
  25.6453609  66.7807293  76.6049099  25.9177446  66.1772919  75.9136009
  24.8569107  66.3824034  76.9735765 108.5869217  15.4128575  74.2334509
 109.3879986  15.8712256  74.4872475 108.3556557  14.8913169  75.0020504
  45.1077938  83.8986874  52.9546690  45.0954437  84.1995239  53.8632774
  45.4734325  83.0152321  52.9998302  66.1384010  43.8303518  27.2334027
  66.1220217  43.1246662  26.5868926  65.2515173  43.8462305  27.5931525
  20.3096747  87.2888565  81.1880779  20.1495242  87.0634365  82.1044636
  19.7908914  88.0798721  81.0418129  76.1101532  41.7712307  17.6981556
  75.9156322  41.1323643  18.3838964  75.3012228  42.2739792  17.6027405
  31.1681867   5.9881002  88.5777378  31.8343377   6.6707802  88.4976101
  30.6995869   6.0115999  87.7434158  92.7211285  83.0419064  61.2423563
  92.6461315  83.9628887  61.4921474  93.2204247  82.6407051  61.9536734
  21.1347914  11.7849243  51.2221956  21.7813873  12.2452521  50.6871748
  20.5609083  11.3555729  50.5877304  39.9870205  62.9545355  19.6151125
  40.2939367  62.0653200  19.4381285  39.1649055  62.8340197  20.0903344
  93.7121391  93.5004616  82.8127289  94.2889595  93.4003544  83.5700226
  94.1072178  92.9503250  82.1363449  98.4853458  95.4418182  57.5738287
  99.0452480  95.2342796  56.8257189  98.2352829  94.5891285  57.9296780
  83.0940819 102.5741482  68.7254286  83.7569523 102.0098972  69.1235018
  82.4668217 101.9668007  68.3331203  75.5166340  99.3954182  47.0457697
  75.9631729  98.5507011  47.1031761  74.7994709  99.3305683  47.6764107
 112.2750523  27.4284363  70.3045034 111.8898044  27.9576302  69.6060991
 112.7545353  26.7386770  69.8456335   1.2581894  70.9515429  48.0279779
   0.7320648  70.2434301  47.6564980   1.4124757  70.6851912  48.9343357
  98.8656712  85.4724598  84.0388870  99.1730499  84.6524715  84.4253635
  99.6468353  85.8578205  83.6420059  29.4381976  74.5460939  51.6699886
  28.7941504  75.1166391  51.2505674  29.9283767  74.1628695  50.9426022
  13.6797655   8.0794591  88.4248638  13.8315773   8.8383555  87.8616047
  12.7388465   8.0955160  88.5999298  51.9148827  85.1463127  22.5282335
  52.1639538  86.0514545  22.7150846  51.0198069  85.2081776  22.1947050
  46.6424322  82.6951599  83.0966377  47.4607658  83.1142139  83.3629990
  46.2811136  82.3380184  83.9078903  88.1262493  81.8734932  69.0366793
  87.9225063  82.5668716  68.4090328  87.9307652  81.0617352  68.5686302
  75.4875135  90.3923512  81.0155106  76.0821152  89.7509480  80.6265640
  75.9012413  90.6301689  81.8452740  85.5423927  20.0911045  49.1068125
  86.2869072  19.6133900  49.4724894  85.6507492  20.9861040  49.4284725
 108.4106159  97.3169327  36.0102201 109.2195797  96.8573666  35.7852817
 108.1816387  96.9873905  36.8792439  98.5960102   8.0018932  71.2892437
  97.9240799   8.5853112  70.9365940  98.2859993   7.7830768  72.1680212
  85.3504181  76.4112520  43.4783506  86.1202335  75.9775066  43.1102753
  85.0308037  76.9722271  42.7716780  53.5965252  21.8173647  27.0321155
  54.2567539  22.5092626  26.9920373  54.0352201  21.0465431  26.6720963
  42.9694557  28.0171537  65.6823301  42.2626209  27.4524355  65.3697538
  43.4603310  28.2456326  64.8929787  93.7683582 102.7728081  62.1279383
  94.1702461 103.5217094  61.6876364  94.3479633 102.0378590  61.9275856
  64.7417259  79.8332119  74.3716383  64.9858189  80.0237370  73.4659052
  64.0394926  79.1867590  74.2995262  97.7781296 104.5773602  35.6641102
  97.0103359 104.3480492  36.1876917  97.9950619 103.7733269  35.1922107
  85.6787872  61.9698238  77.9493952  85.6035519  62.8005552  78.4189272
  85.4807377  62.1903372  77.0392418  62.3905277  91.1342430  61.9257832
  62.0825148  91.0243988  62.8253937  61.8270731  91.8168449  61.5613699
 111.8514633  98.5563660  37.0560384 111.2141228  99.2693329  37.0972705
 111.5977192  98.0527115  36.2826157   5.3893065  23.8544440  44.1010046
   4.6884000  23.2545972  43.8457680   6.0847396  23.2844210  44.4291496
  12.3716283  22.9457021  57.0915985  11.5006030  23.3111167  56.9366217
  12.7681351  22.8945875  56.2218857 106.9186878  89.5551682  69.1777182
 105.9815216  89.3659306  69.2239952 107.1116829  90.0112247  69.9968624
  19.2508316  31.0284925  44.4786167  18.7900722  31.7017055  43.9779043
  18.9023101  30.2015996  44.1454363  25.9985280  42.3920393  50.6262827
  26.3069105  41.4979506  50.4788303  25.5613399  42.3573494  51.4771032
 107.5107990 106.0000210  88.8983727 106.5814815 105.7834122  88.8230133
 107.6088915 106.3264007  89.7928524  92.3818016 101.9341469  64.1217041
  92.7988338 102.2618103  63.3248663  92.8835773 102.3294544  64.8345757
  21.6275191  11.8414450  70.3282547  21.7268801  11.0670006  69.7745466
  21.3367629  12.5287473  69.7288322  24.3171382  33.5237455  53.9915133
  24.6117854  32.6574016  54.2723370  24.4354773  34.0785408  54.7625065
  91.1110306  10.6948996  83.8656044  90.8589172  10.1976860  84.6437073
  90.3129673  10.7360613  83.3386898 100.8303928  97.0074463  86.0472775
 101.0831547  96.5174961  86.8297672 100.0625038  97.5109482  86.3175869
  99.2406273  79.8286343  82.3359871  98.7373352  80.4466152  82.8661060
  99.1205025  80.1318073  81.4360428  22.9007983   0.4079681  67.8901672
  22.1350908   0.8189858  68.2914019  23.4871769   0.2257596  68.6244631
   5.2908725  10.8998358  72.2052050   4.8040262  10.5461812  71.4607954
   6.0536587  11.3244057  71.8126059  29.6181417  19.9565482  41.2753391
  29.9528146  20.7944226  41.5950108  29.3200254  20.1417708  40.3848028
   4.5404854  13.3740056  48.9713860   4.2066517  12.6378024  49.4840193
   4.4044232  13.1129074  48.0605936  40.4458046  10.0114548  72.7820683
  40.5050611   9.1229045  73.1330633  39.7099900   9.9789083  72.1707201
  10.5795860  37.9704428  75.0135422   9.9156809  38.2486320  74.3826151
  11.3272083  38.5432744  74.8427868  67.3767757  93.0679035  21.4715815
  68.2724047  93.3820629  21.3475227  67.0013475  93.6642551  22.1193862
   0.6750648 103.8149929  54.1352463   0.5102975 104.7487068  54.0038252
   1.4084429 103.6169052  53.5528803 105.7446671  97.0336533  76.2305880
 104.8575497  96.7905235  76.4954233 106.1823273  96.1987400  76.0644484
  98.6558151  37.4701715  47.3816156  99.1006184  36.7059970  47.0149899
  98.0572033  37.7533412  46.6904545  69.8415327  51.3270950   2.5004810
  70.6575632  51.6460419   2.1149921  69.5986795  51.9992447   3.1372443
   3.3182538  59.2111158  64.9420929   2.9090670  60.0136089  65.2658367
   2.6148468  58.5620308  64.9538326  51.3943624  77.1870041   8.8428360
  52.2724342  77.5679398   8.8534087  50.8080482  77.9331732   8.9681321
 107.2616863  37.6127505  73.9473248 108.2068729  37.4947453  74.0417767
 107.1616077  38.5178399  73.6523104   4.4993040  11.6295648  56.3431978
   5.2200741  11.9711006  55.8139753   4.5209229  12.1535122  57.1439743
   3.5018924  21.8629432  43.9785910   2.6461050  22.0255685  43.5818386
   3.7013960  20.9541965  43.7536240  22.3911238  16.9126642  71.0206556
  21.4348722  16.9487655  70.9980392  22.6463223  16.7527163  70.1120758
   7.6625186  94.1568851  76.9519758   7.1695846  94.6498680  77.6078844
   8.5653573  94.4577885  77.0547915  60.7454109  32.3431396   2.6361069
  61.1587954  31.6703558   2.0950803  61.4685392  32.9063463   2.9120079
  77.6722717   3.1116885  73.9256954  77.4219704   3.9667642  74.2755938
  78.3329439   3.3086869  73.2616663 104.7481728  88.1100178  63.5210180
 104.6060085  88.5306358  64.3690157 105.4309368  87.4601269  63.6874866
  30.4578137  16.0348964  44.9748230  29.9067354  15.2524936  44.9549913
  29.9621391  16.6637468  45.4993105  69.7302151  40.9911537  13.8222599
  69.7381115  41.6748953  13.1524372  68.8102102  40.7368755  13.8941216
  39.1927767   2.2298403  45.8594084  39.7951961   2.9430160  46.0708380
  38.7856865   2.4965988  45.0351810  17.6982987  89.0137863  57.6297808
  17.7746499  88.1839943  57.1587849  18.4240282  89.5438671  57.3002958
  18.6956871   6.5689462  77.0652819  19.0379739   5.6904101  77.2303438
  19.1929507   7.1346331  77.6560116 108.8615990  97.3804760  56.5054893
 108.4982014  97.4856567  57.3847580 109.3798828  98.1727123  56.3641787
  24.0574050   2.7100244  54.8204851  23.2930493   2.3860043  55.2969360
  23.8155627   2.6311854  53.8977051   5.6769508   8.5546005  73.5317993
   5.4701316   9.3426615  73.0293846   5.0403571   7.9055971  73.2321739
  40.9286261   3.6294764  54.8922586  41.1469030   4.1300663  54.1061306
  41.0831213   4.2383462  55.6145048   8.8294977   5.7214344  67.2188234
   8.6455625   4.9277365  67.7212620   9.6142596   6.0869461  67.6272106
  90.2579498  14.3221450  43.2780647  91.1350727  14.1327310  42.9448652
  90.2333260  15.2755737  43.3592987   8.9172542 102.1383572  42.8279209
   9.0870678 101.4890194  43.5103846   9.7719288 102.2915173  42.4250507
  59.4130278 103.4444618  80.3854752  60.2286768 103.1438351  80.7861900
  58.9193583 103.8314152  81.1085129   1.0465391   8.0755937  68.5816383
   1.7826910   7.4664295  68.5248041   1.2643304   8.6463863  69.3185234
  23.3289433  22.6435399  77.9967737  23.3158898  23.5953188  77.8958797
  22.6072168  22.4563980  78.5970449  71.9074726 100.9351349  47.3573589
  71.2493706 101.6006851  47.5577831  72.7290392 101.3060760  47.6793337
 105.2384377  19.9324882  41.7002583 104.5785809  20.5890799  41.4773083
 104.8687840  19.4664776  42.4502087  86.7330742  95.7514572  55.8769226
  87.6352501  95.7080173  56.1938286  86.7432213  96.4475918  55.2200127
  16.8589938  14.5118010  72.8376818  16.5527380  14.5873713  73.7414122
  17.7931488  14.3185663  72.9167271  26.9284630  38.8530374   4.0350518
  27.3102164  38.7825632   3.1601062  25.9837461  38.8774800   3.8829160
  28.9109802  25.3990579  59.4580746  28.6203957  25.2807856  58.5537481
  29.8553395  25.5395913  59.3897629  12.0938396  15.7085466  39.2086387
  12.9276240  15.3751218  38.8771820  12.1663213  15.6316566  40.1599884
  29.7770667  18.9228463  27.0629144  30.4726481  19.1692996  27.6725531
  29.0088439  18.7881589  27.6178241 100.0530624   4.5852315  90.1852798
 100.2303219   5.5253607  90.1541901  99.1505432   4.5013681  89.8776054
  51.7235041   2.0449337  34.3305874  52.0376158   2.2829729  33.4582925
  50.9002018   1.5834780  34.1710138  79.3197584  97.2290039  62.2448111
  78.7759876  96.4810181  62.4919367  79.8547840  96.9068813  61.5194035
  69.3966913  95.3151035  47.7412748  68.9548206  94.5033169  47.4922848
  69.6467590  95.1809978  48.6554527  81.4573002  32.3945665  73.8161039
  81.3086319  31.6384053  73.2483435  80.5800438  32.7254105  74.0089846
  41.6849232  58.2641268   8.2913995  41.3959694  57.4130964   8.6207736
  41.6035271  58.1930590   7.3403180  30.7879996  93.6878586  42.3474598
  30.9696031  93.3152866  41.4846468  31.4769316  94.3396950  42.4767065
  83.0455494  98.5398960  78.2841969  83.0596542  97.6620674  78.6655712
  82.5241756  98.4463120  77.4869251  27.2798204  38.4330535  39.5968843
  28.1762528  38.1363750  39.7537947  27.3728800  39.3496275  39.3371463
   2.8793144   3.7838763  46.8140078   1.9227012   3.8133913  46.7981291
   3.1058222   3.0502132  46.2424612  52.7907848  44.8250532  26.0324883
  53.4904194  44.2817783  26.3952518  53.2337093  45.4019022  25.4101562
  60.1615477   0.3425671  75.9114933  61.0338163   0.4525280  75.5329561
  59.8410892   1.2355974  76.0381174  27.7799392  12.7871418  47.6508760
  28.0562639  12.2841799  48.4169722  27.1803379  13.4462345  48.0005980
  46.0094595  22.1804261  46.8960238  46.4241457  21.3565493  46.6401100
  46.6516066  22.8526974  46.6681337  19.7605324  49.9093533  10.3025651
  20.6551123  50.1539898  10.5394495  19.4401300  50.6467819   9.7831702
  43.7197542  76.0045290   6.3329637  44.5598269  75.5969477   6.5436381
  43.2508183  75.3397703   5.8285552  85.9218884 104.0416241  66.4766359
  84.9989128 104.0793133  66.7274952  85.9615612 104.5036983  65.6392908
  24.7342587  14.5909071  40.1825571  25.3305721  15.1914048  40.6298208
  24.3656540  15.1084030  39.4666243  94.0412712  98.6995411  51.8975830
  94.3828583  97.8201294  52.0594263  94.3939400  99.2288589  52.6128960
 110.6476402  17.5367749  61.0587406 110.3992462  17.0487833  60.2736330
 110.6745911  18.4503627  60.7743740  65.0181246 102.7694988  42.6865149
  64.7475529 102.0116329  43.2048464  64.9432135 103.5102272  43.2881355
  10.8679736  19.6069789  33.4302616  10.3721988  19.2729259  32.6827002
  10.4008424  20.4003239  33.6922240  81.5561771 105.6052685  78.0480766
  81.0221863 105.7260704  78.8332510  81.6890049 106.4909267  77.7101564
   1.7197007  60.2553940  47.5755072   0.9500591  60.8096361  47.7047348
   2.1509174  60.6206846  46.8029451  67.8377430 105.1352824  83.9443684
  68.0900757 104.3070757  83.5361576  68.5918705 105.3768169  84.4821167
  34.1267061   7.2883523  59.8467302  35.0428128   7.3197877  59.5710659
  34.1632056   7.3159343  60.8028364 103.7013531  80.6644726  32.7826118
 104.3523884  79.9822235  32.9467010 104.1647243  81.3161182  32.2564173
  10.4178464  38.4628367  83.1818771  11.1702335  38.0967307  83.6467552
  10.6216276  38.3319497  82.2558212  60.5007744  31.8402290  22.5279665
  61.2943602  32.3597789  22.3994303  59.8786449  32.1916509  21.8910265
  98.2577038 105.7235336  65.3798389  99.1851139 105.5025578  65.2943325
  98.1353951 105.8857727  66.3152313  99.4012547  72.0506525  85.2185440
  99.5931339  72.5168371  84.4048595 100.2156925  72.0976496  85.7192707
  81.2814140  11.5965879  76.8554163  81.2018681  10.9556413  77.5618839
  80.7752514  12.3505747  77.1579695 109.3501282   2.8575063  45.8947039
 109.1890717   3.7758660  46.1112833 110.0993538   2.6113245  46.4371872
  27.6108956   6.7090774  53.1548738  27.8292894   7.6305783  53.2940531
  26.7013144   6.6323411  53.4429836  23.5846376  46.4202404  71.2752962
  23.2396555  47.3114300  71.3301086  24.2001152  46.4463043  70.5426693
  19.4127142  91.9256020  50.0942039  19.7214365  91.0474396  49.8711681
  19.2795265  91.8992043  51.0417223  90.1341724  93.0610466  84.3313313
  89.2761517  92.7069473  84.0975571  90.6705189  92.2892189  84.5125484
  85.7773209  67.1794319  38.0191350  86.3861465  67.6510859  38.5875583
  86.3398647  66.7035675  37.4081278   8.2370335  96.0565090  71.8554163
   7.2955650  96.0557652  72.0282459   8.6343026  95.8143616  72.6919413
 100.8557892 100.3764915  58.8514996 100.9350872  99.5463371  59.3213701
 101.7378330 100.5511475  58.5232925  15.0055218  15.4188001  23.7324643
  15.2329755  16.2285316  24.1894436  15.2046919  14.7249591  24.3610716
  20.4824972   9.5593190  66.4532757  19.6416128   9.1019976  66.4542055
  20.7832956   9.5093989  67.3606110  23.5976934  18.3392882  40.5057240
  23.7207127  17.5683653  39.9518490  22.8671670  18.8091159  40.1034498
  30.5717897   0.4873762  44.1696167  30.5351353   0.1674020  43.2682276
  29.8232508   0.0750322  44.6007729  10.8102965   4.9560618  46.1061335
  11.1399913   5.7086605  45.6150818  11.5976739   4.4905034  46.3881302
  96.3876343  59.6704245   2.0985696  97.1666336  59.2968559   1.6864628
  96.3845539  60.5859375   1.8191670  84.8060608  94.5775032  40.9436941
  85.6522655  94.6144199  41.3895750  84.6687126  93.6467934  40.7672215
  99.7162819   3.4222138  86.0092449  99.2778587   3.0608773  86.7796040
  99.4200897   4.3315709  85.9696102  90.5029297  80.6996155  62.0774126
  90.1251316  81.0112667  62.8998327  91.2648487  81.2614441  61.9357538
  96.1703205  97.4471569  57.9888773  96.3954830  98.3477211  58.2223749
  97.0004368  97.0554161  57.7174330  77.8915167  61.7123461  42.5056267
  78.2248831  62.5506496  42.1857023  77.1514559  61.9468594  43.0655766
 108.8114357  18.2555223  57.3659372 108.2538700  18.9213681  56.9634390
 108.4133148  18.0950081  58.2214880   5.3084862  81.0361767  61.1058807
   4.8028955  80.4798889  61.6984653   5.3384966  80.5458832  60.2843332
  15.3540981  12.4064505  61.5947247  15.5744016  11.4775145  61.6638327
  15.5838859  12.7713180  62.4493027  59.3719769  90.6038761  59.2259502
  58.8701868  90.9630108  59.9577045  59.9497318  91.3185024  58.9581060
  62.3480177  -0.0127036  55.1934910  61.4395618   0.2581617  55.0609159
  62.7740240   0.7556556  55.5734587  39.5744729  34.8573589  50.4803610
  39.7940063  34.1287684  51.0610437  39.2317462  35.5340576  51.0641861
  12.9043794  32.9812551  53.3265686  12.3527527  32.9982162  54.1086531
  12.9092884  32.0628691  53.0568075 104.5978642  98.2650566  39.3304443
 104.6523857  98.1029987  38.3886361 104.9652672  99.1415691  39.4443178
  82.7567196  90.7692432  61.4086533  83.0541992  90.7498169  62.3182487
  82.9320240  91.6643620  61.1183929  21.8367290   5.7319748  56.8887615
  22.5869274   5.5025262  56.3403177  22.1976161   6.3153028  57.5563860
   4.4634727  27.1406937  60.9436417   5.3002703  27.4538112  61.2870932
   4.2061993  27.8013992  60.3005934  32.4760127  98.5885048  63.0620337
  32.8408051  97.7992058  63.4622478  33.1165099  98.8370323  62.3955297
  35.9796429   3.2222190  67.5409269  35.9062147   3.6589798  68.3895016
  35.1212573   2.8219023  67.4025202  35.7737303   2.4207523  25.3955579
  34.9333239   1.9876876  25.2458858  36.4156365   1.8508379  24.9720168
   3.5502592  77.6141787  71.4550209   2.8599113  78.1745815  71.1006212
   4.1749775  78.2234383  71.8484211 102.3674583  70.5099392  58.6061287
 102.9575157  71.2484026  58.4553385 102.1325397  70.2080297  57.7286911
  52.0454502   1.4311033  26.0258698  51.5001440   1.9391568  25.4252410
  51.5971613   1.4956248  26.8691421  88.1541157  83.1840992  33.7446594
  87.6286888  83.9261246  34.0439296  87.5363922  82.4540234  33.7042618
  63.8261127  31.2455559   4.8015672  63.5372829  32.1200275   5.0625414
  64.0893793  30.8259106   5.6206024  37.7931356 103.2897186  60.7881832
  37.2094798 103.7263393  60.1677513  38.6524343 103.6773586  60.6221390
  11.8704689  69.3148994  62.5331831  12.5010467  68.9535761  61.9102478
  12.0271468  70.2589607  62.5122213  13.7371039  48.8808060  49.6646547
  14.2673373  49.2573357  48.9622974  12.9348636  49.4029570  49.6653557
  93.3847904  64.4051790  88.5972595  92.4947262  64.3727636  88.2466125
  93.7697411  63.5638952  88.3517265   1.4880519  98.8773727  64.6249104
   1.8132296  98.9208412  65.5241346   0.6829645  99.3950081  64.6360683
  35.3477263  19.6441638  64.4476604  36.1106324  19.4352543  64.9866962
  35.5074930  19.1901517  63.6202669  57.1208715  73.1638479  53.4855366
  57.4336433  72.2719955  53.6372137  56.6110134  73.3751106  54.2676163
   9.6824694  71.9436121  19.8621392   9.0646034  72.5166941  19.4082069
  10.3908789  71.8087578  19.2326939  42.1296978  82.9301167  58.3898211
  42.7368164  82.2458839  58.6717224  41.5275717  83.0344486  59.1265631
 100.5950165  93.4705544  35.2062631 101.2790203  93.8488960  34.6537924
 100.8561230  92.5565338  35.3185725  12.4522579  63.7418556  63.6129427
  12.0531738  64.5048428  64.0310478  13.3380961  63.7069082  63.9739180
  71.7543793  40.4308414   4.5655686  71.8618059  40.5887556   3.6276168
  72.6373720  40.5152273   4.9253365  81.8011189  97.0078659  29.9419260
  82.4232101  96.5634823  29.3659425  81.6373825  96.3811398  30.6466484
  15.2610922 101.0019112  34.5555520  14.3188119 100.9871006  34.7232461
  15.5974388 100.2296257  35.0101781  32.7947974   7.8480327  83.3010483
  33.1655049   8.7298757  83.3351231  32.4913216   7.7505040  82.3984814
  85.8985233  73.5020685  52.0648623  86.5875626  73.4449816  51.4028978
  86.1963940  74.1882420  52.6620817  11.3538110  99.9104023  23.8731027
  11.1328721  99.0353775  24.1920877  12.3090649  99.9089718  23.8121057
  15.6304896   8.2440281  67.1168041  16.5730405   8.2815129  66.9542503
  15.2632666   7.8761649  66.3130283   9.6482295   7.2350520  58.7774563
  10.3763568   7.7728146  58.4662104  10.0244606   6.7067635  59.4814396
  84.8106766  75.5713558  49.9444437  85.4121685  75.9169436  49.2848921
  85.1991844  74.7376776  50.2095318  21.3862705  99.1679955  67.3375130
  21.3944554 100.0432968  66.9501972  20.4964995  98.8482761  67.1881056
  50.1567650   6.9322574  61.6980791  50.5520821   6.5515912  62.4823284
  49.2671537   6.5792757  61.6828394 112.0005512 104.3388939  42.2786903
 112.6974678 104.9036121  41.9445610 112.0937729 103.5249710  41.7836523
  24.1763210  90.1010799  48.9959908  23.2249832  89.9984455  49.0215731
  24.5136142  89.2053604  48.9837217   6.6069061  64.1493893  59.2402363
   7.4566025  64.0486193  58.8111734   6.2992370  63.2531738  59.3757582
  23.5696077 103.7775230  80.5013847  23.2970881 102.9479980  80.1091385
  22.8688383 103.9931488  81.1167336  26.9179249  98.5834789  27.9753685
  26.7972851  98.0269337  27.2059894  26.1651993  98.3874035  28.5332108
  92.5756073  87.4563503  39.0440726  93.1958199  87.0224762  39.6300077
  91.7216492  87.3167324  39.4533277 101.1102676  98.4720039  38.8314462
 101.1549759  98.2873631  37.8932881 100.1759148  98.4420967  39.0371728
  48.5753632   1.1846158  47.2654152  49.3452311   0.6945774  46.9766140
  48.8266087   2.1033260  47.1701241   2.3691992  80.3087807  73.3871841
   1.6852194  80.7754135  72.9069138   3.0988961  80.2521229  72.7702856
  30.3983927  97.0244884  42.3687267  29.8448324  97.5738049  41.8136930
  30.0309300  96.1452866  42.2781372  85.4536629  61.7712307  31.9153881
  85.3200150  62.1607447  32.7794766  85.4008389  62.5099039  31.3089204
   0.4657596  33.8366318  40.6846189   0.2632847  34.2232299  41.5365458
  -0.3517857  33.4217143  40.4094934  11.4917362 103.5843086  41.4356327
  12.4342024 103.4260368  41.3814116  11.3435650 103.8384724  42.3465014
  44.5372200  18.0920184  88.0399227  44.4047070  18.6262178  87.2567844
  43.9913225  18.5067368  88.7079334  47.7745819  27.8316617  40.9151125
  47.3198891  28.1511259  40.1357365  47.1088839  27.8442526  41.6028070
  80.9866142  80.1200676  45.5155754  80.0692654  80.2639866  45.2832460
  81.3106155  80.9869480  45.7600594   0.9015569  23.5044169  43.7286282
   1.1506599  23.2363653  42.8441381   1.5634179  24.1490483  43.9788723
  90.3322124 105.3648281  65.3243923  90.6572437 105.5867672  66.1969328
  90.8531666 105.9049892  64.7301912  93.9235783  72.1484470  64.4216585
  94.6725082  71.8694496  64.9484444  93.1627274  71.7885828  64.8775482
   6.8276256 100.3732204  49.7167826   7.1402436 100.1232433  50.5862761
   7.5319314 100.1102829  49.1242933  16.6050220   6.9340491  49.9790812
  16.9201744   6.3552684  49.2848730  16.3659394   7.7428740  49.5264530
  10.9837377 106.0637283  86.7994022  11.9105971 106.1958313  86.6001320
  10.5765295 105.9016323  85.9484386  68.4677935  91.5948105  25.1733279
  68.4953022  90.6581306  24.9781156  69.2489910  91.9507504  24.7499323
  28.9994383   4.2829001  66.3031244  28.6410975   4.6645036  67.1045017
  28.3055329   3.7078354  65.9805965  29.0358377  81.2807369  74.5149660
  29.1048622  82.1212959  74.0622711  28.7992501  80.6574821  73.8280821
  93.9618015  93.7067604  76.9811010  93.2465076  93.5157967  77.5878286
  94.5329475  92.9405499  77.0354176  29.2301846   2.2250868  80.7621193
  29.3915963   2.9898289  81.3146973  28.7754560   1.6074567  81.3348198
  45.5269575  14.4247603  86.5911388  46.1044931  15.1205945  86.2772942
  45.7529545  14.3248093  87.5158882  89.3531036  75.3733873  65.2216482
  89.7045803  74.5172167  64.9773836  88.8343811  75.6443214  64.4641781
  46.5876913  93.9356232  33.8106322  45.9504747  94.2367649  34.4583201
  47.4374247  94.1706467  34.1833878  43.6676311  13.2605839  59.4447660
  43.7114525  13.8202989  58.6695051  43.0527592  12.5672245  59.2051458
  17.1849859  18.2228827  29.9512434  17.9996526  17.8944647  30.3316283
  17.4553406  18.6503398  29.1385818   6.5635353  20.8986306  51.9501019
   6.4653164  20.0703883  52.4197817   7.3148394  20.7594013  51.3735676
   7.6375872  70.7133484  57.4321413   6.9194752  71.2885904  57.1682358
   8.1372470  71.2289715  58.0651569  34.1236401   2.5821140  58.8240719
  33.9497256   3.4578291  58.4789515  35.0227666   2.6270586  59.1493177
  72.7610016  29.8506880  33.0335474  72.5791407  30.0798631  32.1221542
  73.5591364  30.3339076  33.2473421  95.8898544  91.9495010  53.7746143
  96.8005848  91.7329311  53.9743805  95.7267380  92.7627754  54.2523146
  32.7637196   6.3464767  43.6024809  31.9349265   6.1775368  44.0505791
  33.2628226   5.5366290  43.7086535  52.6067781   8.5090721  32.5889134
  53.5551405   8.4011328  32.6609540  52.4193048   8.3666611  31.6611171
  25.0677419   4.7114497  58.7616110  24.7139668   4.9071628  57.8939867
  25.8808708   5.2143687  58.8077402  16.6740096  94.3015480  62.1566439
  17.1822083  95.1065731  62.2561789  16.4616621  94.0400314  63.0526018
  94.7255707   4.1945803  45.7312489  94.9175549   3.7250677  44.9195051
  93.7714005   4.1688254  45.8029079  82.6828575  99.9028778  72.9180145
  82.7771854  99.8059082  71.9704247  82.6503086 100.8489513  73.0598974
  10.7922163   1.1508817  60.2496672  10.0280370   1.4493055  60.7428122
  10.9976091   0.2933187  60.6219959  26.6902328  79.5810032  42.5344563
  27.1414948  80.2754498  42.0545197  27.1864390  79.4906712  43.3479977
 103.2613850  82.6589489  59.9099731 104.1412830  82.5980854  60.2818871
 102.8205395  83.3193016  60.4445934  77.7139902  73.7686491  76.6234922
  77.7763128  72.8765488  76.2821579  76.7830706  73.9833355  76.5640926
  81.6361618  96.9506645  58.3757973  80.9159279  96.3304901  58.4892750
  82.2715473  96.4832306  57.8335667  17.0425427  27.7747226  63.1920767
  16.4138484  28.0703759  63.8505363  17.8811538  28.1319761  63.4841967
 106.5656567  71.7286587  56.5488911 106.7240620  72.1787977  55.7191229
 106.2932205  70.8469152  56.2948465  18.7999880  22.0485759  61.4405680
  19.7393560  22.0378804  61.6241503  18.5878170  22.9755592  61.3314056
   3.2822397 102.2046947   2.8992742   4.1556203 101.8130112   2.9039428
   3.0421597 102.2436523   1.9734903  23.1760550  86.0496521  48.6311388
  23.7872791  86.5774441  48.1172562  23.4880996  86.1313629  49.5323467
  88.3805752  69.4547272  16.7116416  88.3616734  68.5216331  16.4990115
  89.2981434  69.7059488  16.6058111  70.5066252  13.2844698  71.3325596
  69.6636772  13.6018229  71.0085869  70.2798796  12.6889443  72.0468187
  54.0904665  14.5089602  22.0803022  53.6198473  13.6781204  22.1470571
  53.4269905  15.1379287  21.7966986   2.8715894   4.3432128  63.9048195
   1.9164893   4.3147013  63.9614153   3.1374517   3.4240788  63.8775826
  18.9984441  68.8329744  80.1783466  19.3760884  67.9681492  80.0180435
  18.8266706  68.8485432  81.1198711  96.5268803  85.1782894  56.2932634
  97.4808311  85.1862621  56.3717604  96.3640308  85.1935196  55.3501415
  29.6716285   7.1159077  80.5378056  28.8987970   6.7615902  80.9776020
  29.8308992   6.5135694  79.8111296  33.2122827  25.0929189  47.1366262
  33.4170914  26.0162830  47.2838926  33.9653349  24.6209073  47.4920845
  28.7219906   4.3947673  45.4663944  27.9319644   4.4535747  44.9291515
  28.4507155   4.7141474  46.3269997   8.1294197  62.3404503  62.6000500
   7.3155653  62.8340006  62.7014303   8.5502928  62.3936939  63.4581089
  14.8386908  86.4942551  51.5756750  14.5079136  86.0390663  52.3500252
  15.5694616  85.9543896  51.2744188  33.8842797   3.2134083  54.9635696
  34.7479630   3.0732846  54.5754337  34.0649605   3.4286678  55.8785820
  86.1020947  25.7197452  11.6083694  85.9821510  25.4576087  10.6956100
  86.4555836  26.6078568  11.5580332 100.1819515  97.4258137  33.8756967
  99.4124985  96.9702911  33.5341406 100.6256008  97.7632046  33.0975056
  83.9039516 104.4010258  45.3620815  84.8365116 104.3115902  45.5584669
  83.7589073 105.3459358  45.3137064  32.8282070  22.1548533  49.2574692
  33.4897375  22.7621770  48.9261580  32.0004654  22.4921250  48.9149427
  11.8172777  98.0919552  42.7877569  11.9446814  98.2013893  41.8454075
  12.4345076  97.4032116  43.0345106  75.2321815  24.3892694  42.4137306
  74.8788977  24.3068171  43.2995224  76.0027170  23.8213921  42.4093676
  24.6166754  44.9098492  35.4678488  24.3006110  44.8376179  36.3684702
  25.5676365  44.8284531  35.5404925   9.3414617 104.7011662  36.6009259
   8.7692100 104.4651031  35.8708310   9.0875077 105.5965710  36.8244839
  47.7612829  17.7467144  57.8599215  48.6479616  17.4478614  58.0617142
  47.5399923  17.3040688  57.0405769  29.0559864  42.0684624  34.2547536
  29.9148703  41.6953850  34.0563583  28.5742188  42.0127201  33.4295106
   2.2465801  29.0527296  25.7395768   2.0604916  28.8788939  24.8168707
   2.9098308  28.4044719  25.9764099  75.6227350  25.8621502  31.6365671
  76.2343311  26.5982938  31.6200113  76.1767244  25.0935197  31.7727137
  69.4020033  60.9786701   3.6200279  68.9793730  61.8123341   3.8264754
  68.6762285  60.3722382   3.4726113  54.5603609  20.0990319  70.9151268
  55.1816416  20.7966161  71.1239767  53.7207651  20.4194593  71.2447262
  22.3341012  17.8682089  64.2672586  21.6872978  18.5238945  64.0065813
  22.1200252  17.0980453  63.7407112  19.0307283  80.7168007  62.0142651
  18.4832406  80.4235172  61.2859297  19.7096944  81.2518501  61.6032076
  57.5659084  13.7212586  19.5703363  56.7325926  13.7524414  19.1003978
  57.3396587  13.3836746  20.4369855  60.4557848  24.4372797  19.1500795
  59.7477818  24.7368813  19.7203457  60.1469851  23.5996532  18.8047409
  94.1752815  77.1662426  12.0177126  94.2314911  77.8802919  12.6526999
  93.2872200  76.8240452  12.1200824  24.8513293   3.4336254  29.8305821
  24.8039675   3.0175436  28.9698458  25.4585242   4.1637906  29.7105622
  17.0559835  26.9348240  66.1870146  17.1180582  25.9873056  66.0662365
  16.5100229  27.0417261  66.9659424  94.6293354  83.1372356  37.0381331
  95.3242397  82.5118256  37.2435212  94.7991276  83.8819313  37.6150489
  38.5421228   8.5093290  74.9341154  37.7553368   8.1185704  74.5539713
  38.3464170   9.4451708  74.9802828  39.8090172  13.0144191  60.6152153
  40.0776339  13.5932457  59.9017477  39.8782086  13.5556364  61.4016819
  56.8048143  12.6893616  49.6356916  57.6985121  13.0242264  49.7091627
  56.3286686  13.1196487  50.3458786  59.8724031   8.8252836  60.8526564
  60.4164600   9.5081550  61.2449837  59.6711969   8.2334054  61.5775204
 105.3945160  81.6261864   5.7231480 105.6050682  81.6021633   6.6565943
 105.7095623  80.7879925   5.3849012  65.3886843  15.3554881  74.4175291
  65.8734322  14.6067119  74.7647858  66.0271358  16.0685205  74.4035721
  24.4975019   2.2047333  75.0782728  23.7262249   2.7571803  74.9511194
  24.8878098   2.5220829  75.8926296  54.1326284  22.4719763  43.8959312
  54.5384359  23.0851007  44.5088196  54.6264648  21.6596341  44.0075445
  16.8955541  10.9609962  64.3716621  17.5001669  11.3040161  65.0296974
  16.1282861  11.5301585  64.4315434  12.3499167  95.9614658  62.0340824
  12.7279484  95.3575039  61.3949013  11.5820301  96.3261127  61.5940619
  53.1704092   8.1469834  46.9498444  52.8144693   7.2826409  46.7438173
  52.5120354   8.5481203  47.5171757  13.8599229  36.7378330  19.4607961
  13.0219007  36.4609098  19.0903056  14.4088614  35.9545708  19.4233871
  18.3087146  46.0773087  28.4610200  18.0288422  45.8586550  29.3498921
  18.6748815  45.2621984  28.1178784  30.2738857 102.9640293  56.1721134
  29.3198299 103.0270767  56.1269999  30.5064774 102.3493671  55.4761791
  46.0382128  19.5537043  37.1989822  45.9476328  19.0999579  36.3610435
  46.7005491  19.0510345  37.6731825  45.0519276  15.7844138  42.0767498
  44.8109055  16.6246891  42.4667215  44.2545891  15.4858863  41.6392994
   3.4178010 103.7212276  73.9856005   2.5312245 103.4192181  74.1830921
   3.9825559 102.9946041  74.2488432  48.2868052  97.4100399  64.7296906
  48.3700275  96.7668438  65.4336882  48.8112307  98.1552029  65.0228405
  57.2504950  21.6519952  80.6535530  57.1946573  21.2096882  81.5005970
  57.9264784  21.1709046  80.1762390  16.9027603  42.7201366  30.2868152
  16.9836378  43.4070492  29.6251225  16.0228848  42.3659229  30.1580310
  33.1225777 101.1819363  81.7443752  33.1809902 101.9365597  81.1583996
  34.0239048 101.0283279  82.0276451  52.6806736  19.2149305  62.6817703
  52.7482224  18.3531070  63.0927801  53.5143280  19.6411633  62.8807068
  33.3549356  32.5189161  54.0222597  33.0081987  33.1065178  54.6936226
  33.9290476  31.9208455  54.5007324  13.2400203  16.0325861  82.1133423
  12.3058438  16.1353171  82.2949791  13.6114955  15.7202137  82.9383659
 112.0659070  89.0151691  56.4561605 111.2336462  89.4760799  56.5617085
 112.7041716  89.5666695  56.9086027  12.1709776   9.1050380  47.4043083
  11.2628329   9.1229773  47.7062702  12.6905012   9.2111492  48.2012177
  96.3003540 101.4394569  61.1920309  96.0735416 100.7893085  61.8569279
  96.7899227 102.1093750  61.6692829   4.1591494 105.8389859  48.1862259
   4.1215746 106.2896043  47.3425627   5.0427668 106.0120321  48.5110426
  53.3169079  20.8155537  77.7612543  53.3276272  20.8420062  76.8044758
  54.1892385  21.1137009  78.0188894  51.5550375   4.8740608  43.7664986
  52.3013401   5.3838789  43.4512901  50.8495140   5.0774866  43.1524277
   1.7925796 101.7091179  43.1869888   2.2158976 102.2307301  43.8688660
   2.5176731 101.3143349  42.7026176  22.7510643  75.2966118  54.5243740
  23.0960202  74.6943092  53.8652325  22.6555800  74.7608232  55.3118038
  25.1134729  25.5750251  74.9637651  25.4116464  25.0980616  74.1892767
  25.4933262  25.0965738  75.7006693  63.2675457  15.1376057  82.4391747
  63.2548857  14.2688251  82.0375729  62.8584576  15.7082093  81.7885685
  30.6975412  21.6356444  76.9649553  30.1385498  21.0874581  77.5156403
  31.2355852  22.1279883  77.5849056  35.8673286  32.1930051  70.8014107
  36.6492057  31.9887757  70.2883911  36.0762620  33.0188346  71.2379694
  19.1182935  94.1871643  75.1933718  19.1732132  93.4731960  75.8285618
  18.2046270  94.4702435  75.2296209   0.9414198  89.6469021  76.5305710
   0.3042791  89.8644066  75.8501482   0.6359114  90.1197338  77.3047304
  50.0066948  23.4486556  75.4502106  50.2048874  22.6657057  74.9364567
  49.0572023  23.5473371  75.3797817   5.6763047  85.2201462  50.7349396
   6.0042059  86.0006905  51.1815596   4.7243607  85.2806568  50.8147621
  16.0764623  98.9403820  64.7857285  16.0238969  98.9807987  63.8308239
  16.5939927  98.1551552  64.9640846  44.2284966   1.3178377  91.8918991
  43.7066746   1.8839276  91.3231564  43.9665890   0.4292728  91.6508865
  17.1878910  92.6492691  30.7654309  17.0458233  93.5893726  30.8761716
  18.1036997  92.5754261  30.4969645  17.3202944  24.8079252  35.3393173
  16.8407369  24.6520376  34.5257115  16.7453563  24.4681954  36.0250735
  62.1433496  19.4750452  66.9110775  61.3052559  19.6537495  66.4845848
  62.5575304  20.3339434  66.9946146 106.5249252  95.4420567  32.0387053
 106.9592667  95.0047874  32.7710867 107.2408295  95.7225418  31.4685774
  12.6263583 104.7842407  31.4223647  11.7844296 104.3424702  31.5329432
  12.4206591 105.7155514  31.5035534  68.1858015  23.5791540  51.5736008
  68.6571741  23.9413381  52.3238468  68.7984562  22.9551744  51.1843252
  13.4610796  83.7258530  16.7843962  14.1173017  83.5584164  16.1079597
  13.7073171  84.5746040  17.1521068  28.0037022 100.6571960  42.8804255
  27.9318595 101.6071224  42.9737711  28.9351726 100.4742146  43.0033493
  77.5252867 103.1532955  51.6414213  77.8716326 103.0837345  52.5310469
  76.9080067 102.4255085  51.5671253  58.3915663  30.6522799  36.6808391
  58.5624313  30.5094171  37.6117682  58.8280582  29.9219036  36.2423682
  45.8043098  40.4154682  28.7353158  45.1164293  39.7514558  28.6890006
  46.0712814  40.5476141  27.8256488  66.2184620   2.7363878  57.6894379
  66.6065168   3.3619297  57.0776033  66.9627571   2.3886913  58.1807280
   9.3610382  86.0806561  26.2178254  10.0066888  86.0623074  25.5114055
   9.7866333  85.6235886  26.9432187  21.1070108  57.5744009  45.3157949
  20.6138682  57.8269482  44.5352411  20.4871058  57.0628309  45.8356380
   6.3764036   7.2789472  34.9257779   6.7650908   6.4452732  35.1906204
   7.1149415   7.8868032  34.8896527  35.8744049  88.2575035  69.0764713
  35.4695749  88.6425972  69.8536777  36.6819215  88.7568188  68.9547062
  61.4946651  38.1327248  12.6310027  61.4626074  37.2977185  12.1641326
  60.9880590  37.9806781  13.4287870  47.8181648   6.7155802  41.2984276
  47.3471117   6.0742140  40.7664633  47.1303368   7.1962053  41.7589998
  88.8134766  97.4677467  31.3596010  88.2450390  97.6827145  30.6200767
  88.6409092  98.1558132  32.0022655  13.0569768  36.0726094  28.8852954
  12.8662443  35.4134011  29.5526004  12.7618468  36.8970633  29.2718267
  53.3469105  19.2292178  29.8418379  53.7366915  18.7155831  30.5492830
  54.0772009  19.7309601  29.4796824  38.6507463  19.8715115  64.0950823
  38.1958556  19.7926140  64.9335814  38.3171940  20.6852937  63.7172842
  33.6545873   4.6821150  51.2672949  34.1986394   3.9469656  50.9848166
  34.1858339   5.1356441  51.9217587  41.2906075   4.8225844  61.2290001
  41.7465782   4.1479850  60.7257700  41.8148756   4.9242082  62.0233822
  48.4452295  21.7821455  68.1672049  48.7341356  22.5072241  68.7213039
  49.2355490  21.5054679  67.7034378  81.1126900  89.1776085  43.9908266
  81.2389374  90.0824833  43.7053394  81.4050102  89.1710186  44.9022722
   8.6356032 100.0271320  39.4684482   8.8307309 100.0831699  38.5330248
   9.4189525 100.3713131  39.8975611  16.9454610  87.8108311  70.3940868
  16.0912740  87.5990868  70.0175714  16.9650340  88.7674618  70.4206085
  64.7955084  14.2169702  71.8214941  65.1616764  14.2441785  72.7054691
  65.4008532  13.6631751  71.3284397  17.4990308  92.8319645  36.3466239
  17.5860381  93.1798458  35.4591346  17.8400695  93.5261917  36.9105101
  12.8963506  98.6114693  62.7108574  13.3419478  99.0005398  61.9583273
  12.7531970  97.6991463  62.4590635  99.0559864  79.6017361  66.5472507
  98.7408924  78.7410975  66.2711239  99.9655151  79.6303940  66.2503338
  42.6144791  18.5194671  29.8143101  41.7985344  18.3209527  29.3549037
  42.5988245  19.4694400  29.9306583  32.5125289  27.5447321  54.4064188
  32.4786115  27.6432753  55.3579283  32.9984999  28.3116913  54.1033697
  28.3308578  96.7238998  87.7313805  28.1140947  97.4814034  87.1878433
  28.2333827  95.9731007  87.1456909  42.3822403   3.1786832  70.3146791
  42.2744322   2.2945237  69.9641514  43.3102751   3.2345334  70.5424213
  50.2118158  11.5419030  83.6894894  50.0879574  12.0657313  82.8979778
  51.0087776  11.0390103  83.5216141  43.2054520  26.3441682  42.2414637
  42.2645807  26.1749768  42.2901344  43.3291101  27.1539807  42.7365875
  46.7684174   2.1271007  72.3153496  46.2211037   2.8513968  72.6187944
  46.9265890   2.3174740  71.3907051  58.6622524   6.4540929  26.6770935
  58.1294441   5.6598097  26.6388369  59.0983534   6.4911950  25.8258176
  76.6612720   2.4588904  17.7548110  76.9323683   3.1230843  17.1211028
  76.3611698   2.9598328  18.5132480   7.1153492  83.9648914  40.6462049
   7.3408401  83.8358402  41.5674734   6.1582971  83.9583778  40.6306887
 101.9841957  75.7109118   9.7161198 101.8286991  76.6538858   9.6626854
 101.9633484  75.4128218   8.8067591  19.8423851 105.1811981  58.8827896
  19.7376776 106.1300755  58.9527225  20.1406598 105.0387096  57.9844761
  22.6467919   7.6716268  63.5119724  22.0958138   7.1203017  64.0675735
  23.0535173   7.0612258  62.8969765  28.7941122  87.2537231  46.8447399
  29.5743275  87.0217419  46.3410759  29.0921736  87.9343891  47.4481440
  20.0555038  18.9593279  45.0546789  20.9824085  19.0463424  45.2771854
  19.7889102  18.1331778  45.4579639  95.7646942  60.9727478  83.8360023
  95.7194614  61.9098949  83.6464310  96.5169525  60.6624603  83.3319569
 111.8400955  95.8916569  53.2602024 111.3484764  95.7652473  54.0717220
 111.5929794  96.7678452  52.9644632  37.8699732  21.3665271  71.9713545
  37.1666408  21.9657254  71.7213154  37.4497390  20.5074501  72.0116186
  41.4666367   8.5544199  38.9665198  40.7722855   9.1684711  38.7276721
  41.6090536   8.7055558  39.9009204   1.9511221  95.9465218  28.6764574
   2.1265957  95.5896091  27.8057957   2.8156355  96.0350418  29.0777206
  20.8297944  87.0504951  29.6302676  20.1542115  87.7272415  29.5874429
  20.3435874  86.2332916  29.7398806  38.4483171 100.5188370  14.9195588
  38.4949732 101.3429928  15.4041433  37.8616023  99.9687099  15.4385614
  40.0171423  12.4025738  42.6132441  39.2537308  11.9226587  42.9343557
  40.3555536  11.8635690  41.8982697  48.0874968  18.0521595  54.6747828
  47.4654913  18.2945561  53.9887905  47.9229784  17.1219790  54.8294735
  45.9364605  32.0371675  29.8360968  45.4584885  31.2099266  29.7773910
  46.8393850  31.8082404  29.6157551  22.3380423  43.4275961  61.3592577
  21.6961980  44.1376162  61.3474655  23.1555295  43.8481236  61.6259050
  49.9660015  11.2946439  66.4335632  49.2297220  11.0937905  65.8558226
  49.6451378  12.0015371  66.9935417  21.9685197   5.2001363  86.7412567
  21.9677663   4.6583632  87.5303841  21.5117216   6.0005748  86.9998360
  47.1538448  23.9320874  73.6147690  47.7743959  24.6251655  73.3894014
  46.9390392  23.5213113  72.7772999  59.8278666  23.2798266  77.4739695
  59.7447348  24.0652013  76.9331264  59.6079159  23.5734630  78.3580685
  68.5770035  12.0206940  11.2936592  68.8248873  12.8189957  10.8272922
  67.7039957  11.8107998  10.9619391  40.8836937  12.4832928  73.4725809
  40.5746365  11.6131389  73.2205009  40.8200169  13.0017507  72.6704741
  73.7011003  31.7362070  41.9660807  72.9217052  32.2830081  41.8671417
  73.8017797  31.3067293  41.1165810  59.5343733  10.1520026  64.8846579
  58.8929653   9.4749361  64.6692276  59.2871618  10.8984685  64.3388510
  23.0365729  14.7521913  49.8271513  22.8184986  14.8408508  50.7549524
  22.4465942  15.3613198  49.3831682  36.2495804  15.4844165  24.3241215
  36.5532327  14.6049953  24.0990782  36.6189742  15.6507313  25.1913691
  94.8934841  82.4716377  42.1977186  94.4204330  82.9160881  41.4942169
  95.8132458  82.6843643  42.0395327  37.2347903  28.7091875  59.2261505
  37.0274210  27.8271580  59.5347834  38.1844950  28.7040377  59.1067123
  21.3216662   9.9537116  63.7781382  21.8687606   9.1725177  63.6965609
  20.7862830   9.7911406  64.5547771  24.0373302  23.3290362  37.3263383
  23.1486440  23.4758997  37.6502180  24.0245175  23.6660266  36.4305115
  50.5721092  16.9818091  58.7795162  50.8012676  16.7105222  57.8906298
  50.3411484  16.1674631  59.2264318  35.6590748   7.8602105  75.6839657
  35.0961995   8.5806221  75.9675312  35.3971577   7.6937509  74.7784710
  10.1828849  49.0882397  49.3468523  10.6820297  49.5793629  49.9994469
   9.3687540  48.8556290  49.7933006  50.3253794  20.7573295  90.7961369
  51.0925817  21.1502457  90.3799057  50.3501844  19.8393452  90.5261040
  64.2292547  17.3432779  50.9342909  64.0982676  18.2431519  50.6354570
  63.7398291  17.2898686  51.7551708  18.4087443  10.7025683  11.3683820
  18.3057499  10.9678364  12.2823060  17.6046586  10.9978569  10.9412038
  74.7319221  43.8644886  91.2784195  75.3137112  43.2332420  91.7018414
  75.2373314  44.1954470  90.5359554  93.9617634 103.0405045  90.5835915
  94.8002720 102.9940605  90.1242638  94.1380215 103.5873604  91.3491726
  47.4454117  99.0571594  60.1814556  47.8969717  99.0674686  59.3375254
  48.0943441  98.7147236  60.7961559  86.5145779  57.1086311  33.4575081
  86.1415482  56.4386368  34.0303802  86.2174797  56.8663025  32.5804424
  28.7000155  14.0183580  44.1676474  28.6686873  13.4121549  44.9077606
  28.5800529  13.4625983  43.3975983  38.1818724   2.0423107  68.4006643
  38.0178952   1.7558035  69.2991400  37.3802781   2.4985474  68.1446886
  24.8357773  41.7913008  48.0707026  25.5468965  41.2227058  47.7753401
  25.1010633  42.0711994  48.9467812   3.8579288  78.4268093  45.2487564
   3.1031138  77.8940582  45.4990721   4.4588137  78.3542252  45.9903049
  50.7615328  29.7349334  43.8652897  51.6851330  29.5455956  44.0306425
  50.4311085  30.0639987  44.7012138  86.0834122  20.1955795  29.3611431
  85.2069855  20.4684234  29.6325612  86.5045643  21.0025835  29.0651488
  14.4386566 104.5840454  50.0035286  14.1106117 103.7152481  49.7715902
  14.8487687 104.9072456  49.2012930  40.2511549 102.6050854  50.2013350
  39.5968628 103.2412720  49.9125338  40.8575296 103.1130409  50.7403421
  21.9652033  15.5912590  62.7394867  21.0847759  15.5438828  62.3668814
  22.0629907  14.7737277  63.2276583 101.9275188  86.0663509  67.9952526
 101.2912655  85.4099083  68.2789660 102.7703190  85.7306862  68.3006096
  39.5039368  30.4788089  53.3227825  39.3805647  30.6556964  54.2553711
  38.9690709  29.7032928  53.1532907  46.5656996  10.9544289  40.3271055
  46.2766457  10.1694226  40.7923365  46.5064526  11.6539347  40.9778070
  36.7027903   7.8529996  59.6758604  37.0956230   6.9911605  59.8142290
  37.1920490   8.2241356  58.9416122 111.2321758   1.7064632  55.0026178
 111.7928791   2.4694856  55.1427698 110.5884838   1.7491180  55.7097769
  48.5138655  16.1895084  68.9395523  48.0153084  16.5608346  69.6674156
  48.9587784  15.4304612  69.3165541  98.4284973  98.5422707  38.7667203
  98.4283161  98.5540104  37.8095913  97.7505779  99.1711426  39.0140820
  23.2333517  84.5013046  58.6051178  22.8168082  83.7958336  59.1001177
  23.5698318  85.0972080  59.2743826  43.3322716  18.6496091  20.0562429
  43.2111263  19.4862771  20.5051780  42.4797821  18.4632456  19.6628439
  22.0083976  12.4200654  56.2471771  22.5803423  12.4240851  55.4796505
  21.8273354  11.4936793  56.4061022  86.7280388  48.7578726   2.8708866
  86.4242840  49.3217373   2.1595362  87.5813198  49.1172791   3.1137004
  47.0688772  17.4268878  32.0485878  46.5060377  16.7370629  32.4001408
  47.4222422  17.0583057  31.2389517  73.3532810  32.8666687  32.9033923
  72.7439165  32.2752213  32.4616933  74.1373348  32.3373818  33.0494928
   8.7101471  97.3499966  66.0669136   7.8598773  97.7892780  66.0844088
   9.1735846  97.6947212  66.8302107  37.5796223  10.3602922  45.4216003
  37.5693107   9.4073313  45.3322029  37.5517750  10.6855822  44.5217991
  43.9417553  19.4495118  52.4665928  44.7427797  19.9453282  52.2970200
  43.3120966  20.1061630  52.7642059  73.2328224  82.5104809  11.5769708
  73.6638212  82.6846409  10.7402277  73.5965967  83.1639576  12.1743524
  68.9557457  10.3677571  68.2501364  68.4481812  10.3340614  67.4392891
  69.7968006   9.9712569  68.0228806 109.7093773 102.4484539  62.6111794
 109.2514610 103.2477570  62.3510742 110.2714920 102.7198029  63.3368731
 107.0524502  67.7129650  42.4934149 107.7475071  67.1208620  42.2061157
 106.8571186  67.4364328  43.3887386  22.7890730   5.3835630  79.9367237
  22.8092194   4.4485784  80.1407528  23.7036538   5.6605381  79.9920177
  19.5196581  26.5387487  38.7133169  19.0452647  27.1166921  39.3109488
  20.3261280  27.0130682  38.5111737  12.6091361  82.3647308  19.4291770
  11.8364644  82.0953083  19.9257898  12.2560632  82.8267002  18.6688125
  55.2967882  20.0100112  65.6309795  55.4290676  19.2250979  66.1626244
  54.3478632  20.0660300  65.5185604  47.2626877  23.0895400  84.5440960
  46.9100046  23.6339593  85.2479744  47.5726080  23.7154531  83.8895607
  79.4254923  29.7748733  35.8818889  79.8345852  28.9758825  35.5494857
  79.9547291  30.4843688  35.5175304  53.2713461   9.4933635  37.0805240
  53.2090330  10.0564563  36.3089824  52.9130983   8.6533946  36.7935681
   4.1154459 100.1691723  72.0020485   4.3479308  99.5115757  71.3464975
   3.1790861 100.0380325  72.1512556  64.2894459  25.4046297  29.9931049
  64.5154238  24.5182419  29.7111702  64.2232132  25.3432894  30.9460378
  86.0130978 101.6377163  14.1324043  85.5837154 102.3300362  14.6349478
  85.9934807 101.9508362  13.2280791  60.4606342  40.3442764  53.3761120
  60.0522470  39.5566344  53.7353754  61.2383604  40.4790878  53.9175892
  81.5609646  11.7280746  42.1495676  80.6958294  11.3185644  42.1403217
  81.4056683  12.6082551  42.4922037  56.9936037  26.2197590  77.3388338
  57.1820164  25.2911186  77.2033358  57.8221893  26.5904260  77.6426125
  48.1138325  23.2574821  77.9715490  48.7915659  23.2096529  78.6458063
  47.5084734  22.5488448  78.1897354  29.7593427   6.6096497  31.2146902
  30.3208828   7.3746860  31.3396811  29.8502541   6.1106241  32.0264411
 108.6874580  97.7187729  71.8864632 108.9748573  97.0049953  72.4558115
 109.1121864  97.5415230  71.0471725  50.2420473  78.5204029   1.6987023
  50.7639408  79.0225363   2.3245755  49.3740797  78.9224482   1.7336076
 104.1627026  83.2795525  35.3273106 104.6245766  82.5463295  34.9207664
 104.8088741  83.6747932  35.9125280  24.3994236 103.2867718  44.7798777
  24.8037219 102.5063610  44.4007635  24.9809527 104.0041542  44.5280361
  10.5374396  21.0494566  73.1734800  11.3138950  21.5391827  73.4446192
   9.8026621  21.6159201  73.4089613  57.7125072  10.3858638  38.9813089
  58.2463360  10.7232881  39.7006154  57.2925997   9.6044052  39.3407965
  92.8430271  74.0021992  19.8853481  92.8732109  74.9566412  19.8192906
  92.0737743  73.8237572  20.4263115  23.6386919  88.8391876  54.4569540
  23.7917972  88.5197163  53.5677242  24.3566656  89.4512749  54.6184874
  64.4982672  10.0984251  70.6327009  63.9351368  10.5098283  71.2883377
  64.6237850  10.7743704  69.9666834  47.0749426  98.2523823  15.3209126
  47.4256182  98.7416553  16.0651386  47.0438480  97.3449898  15.6240535
  53.2404327   6.5231413  90.5459213  52.8278446   7.2567379  90.0900269
  52.5112438   5.9551895  90.7948112  22.1903992   3.4241953  36.0270834
  22.0349765   3.7368119  35.1358223  21.8261433   2.5390714  36.0373712
  68.8678741  93.2758331  74.8994923  69.5681000  93.9041042  74.7228765
  69.2774725  92.6095486  75.4513311  16.7532670  91.2628746  52.9767656
  16.9191027  90.3368092  53.1531715  17.6239181  91.6460037  52.8699207
  22.9517984  80.0395584  64.4166279  23.3930492  79.7264481  63.6270094
  23.2011724  80.9614754  64.4807529  39.2859650   4.1767815  71.4090872
  39.5025229   4.0209913  72.3283625  38.6872959   4.9234387  71.4272642
 111.5532207  85.1014233  50.1193333 112.0789433  85.4882526  49.4191885
 111.1588287  84.3251324  49.7217464  37.4770355  11.3902366  33.7618947
  38.2751131  11.9004130  33.6239672  37.0270920  11.4164126  32.9174423
  83.1508160  27.9633498  21.8707538  83.0001736  27.0318651  22.0316076
  82.8800106  28.3933473  22.6819253   5.4740685  94.4910431  78.5878992
   5.3855759  95.4415417  78.6582518   4.7047395  94.2150879  78.0896854
  33.0680490  31.6204500  45.8633137  32.2854948  31.8422890  46.3679218
  33.0650282  32.2386408  45.1325178  84.7462559  96.9124794  85.4574490
  84.9365711  95.9750843  85.4935646  85.5821609  97.3344135  85.6560993
  18.4836125  92.7216434   9.3818295  18.8019264  93.4952641   9.8470414
  19.2768729  92.2881985   9.0670359  88.5496330  19.0465033  67.1811628
  89.0865612  19.4255137  66.4852476  88.7490654  19.5763242  67.9530144
 102.2816658  87.4127865  39.5784712 103.1292152  87.4282742  40.0230455
 102.4873638  87.1560574  38.6795783   7.6970923 103.4368229  45.4256678
   7.3546642 102.6384354  45.8276176   7.9827434 103.1626987  44.5541763
  73.3462143  28.4375644  26.7275071  72.8281355  28.2400179  25.9472489
  74.2511415  28.2738686  26.4619207  35.8773041  85.5805779  44.3202639
  36.6063523  85.4233456  43.7202692  35.7764626  84.7560692  44.7959137
  79.0172434  33.5880327  74.0351248  78.3783245  33.5308814  74.7455788
  79.3681526  34.4762659  74.0994596  65.5548000  18.7324572  76.5475798
  65.9965611  18.4155583  75.7597637  65.9277105  18.2101750  77.2577858
   1.0893945  99.1156960  34.4892335   0.3965804  98.8922787  33.8676810
   0.6911938  98.9832592  35.3495407  45.0706148 101.3511562  54.5065069
  45.5883980 101.3586617  53.7014771  44.1633511 101.4160442  54.2083645
  17.2050118  40.4643154  36.0504150  17.8033876  41.0092020  35.5392599
  17.4766541  40.5972147  36.9585896  45.8552551  27.5457025  72.8853941
  46.6961670  27.8980041  72.5938702  45.8388901  27.7136707  73.8276005
  56.5986586  40.2166033  53.4122515  57.4722910  40.0086498  53.0809593
  56.7121506  41.0402679  53.8865232  37.8817225  11.3631368  68.9515829
  37.6859570  11.2051225  68.0280399  37.2168183  11.9914615  69.2332602
  47.7886820  23.2488799  39.2615843  48.4663343  22.5963163  39.4381642
  48.0362034  23.6291814  38.4187722  41.5189695  14.4898283  81.2304211
  41.8059587  13.5958529  81.0442066  41.6069460  14.9485588  80.3949261
  45.6576157  19.4256008  30.6165743  44.7731733  19.2828023  30.9536147
  46.2108612  18.8494813  31.1440587  85.6207657  79.5051432  88.2831669
  84.7506523  79.6894789  87.9294109  85.5940914  78.5762930  88.5128498
  68.8062906  14.1250002  42.9907179  69.0433550  14.5661402  42.1749783
  69.3234825  14.5694685  43.6624289  25.1708007  48.6287880  72.6126909
  26.0474610  48.7559652  72.9753494  25.0759363  47.6788568  72.5429583
  74.4574356  -0.2546882  77.2222471  74.3855953   0.0695250  76.3244963
  74.7863150   0.4929764  77.7213144  49.5634842  30.9193540  59.1507387
  49.0718794  30.3173757  59.7094679  49.8311090  31.6264796  59.7377491
  73.0846882  73.5036755   2.4009281  73.2963324  73.0484962   3.2159442
  72.4236441  72.9517412   1.9830431  72.6870203   0.4022796  43.9699268
  72.1489859   1.1672010  44.1740036  72.6735020   0.3479942  43.0143595
  43.3206320   6.7646474  76.3949776  42.3924541   6.6634834  76.6058826
  43.3270025   7.1172708  75.5051184  47.2513342  39.5309997  53.1917763
  47.9062319  40.0094461  53.7001371  47.6872635  38.7145519  52.9476213
  17.1349621  39.1948581  60.8127403  16.6484070  39.5581675  60.0728083
  17.8651154  38.7238359  60.4111814  74.4967890  12.4830759  54.5547819
  74.4308472  11.5626085  54.8089886  73.9349222  12.5594211  53.7836123
  65.6181192  22.3105216  76.6835117  64.6701431  22.4020410  76.5876102
  65.8352470  22.8507161  77.4432993  24.8161483  30.4387259  26.8813205
  24.0323782  30.6533074  27.3871756  24.5757294  29.6542263  26.3883829
  78.8985014  31.0898328  41.4777279  78.6762428  30.6302452  42.2874308
  78.6207914  30.4952645  40.7808781  34.8811817  31.3521433  41.0592842
  34.8314500  31.3776875  40.1037216  34.1143227  31.8443990  41.3522768
  79.9859095  52.8051758   8.6603469  79.9319458  51.8906069   8.9376235
  80.1813602  52.7605534   7.7243769  32.9835582  52.4474716  47.6172924
  32.5841165  51.5777731  47.5998831  33.8522243  52.3045874  47.9931021
  56.1051893  34.9747372  79.8450947  55.3875017  34.3413854  79.8499060
  55.6867361  35.8092809  79.6337461  30.4099894   2.6972356  61.8863964
  30.9595942   3.4742916  61.9881296  30.7328486   2.2782871  61.0886049
  59.2192650  28.1885529  71.2116241  59.5994854  29.0523505  71.3713598
  59.1261530  28.1400609  70.2602005  61.2508106  16.0731947  51.5573168
  62.1626997  16.0406196  51.8465137  60.7994127  16.5650308  52.2432947
  57.0483732  28.4483910  49.1109991  56.7650843  28.8892841  49.9119949
  57.0708036  29.1414976  48.4512043  71.8614292   4.8755297  37.2788358
  71.7076588   4.0025479  37.6400685  71.8950987   5.4490298  38.0444694
  63.6815023  25.8705378  64.3234873  63.6255169  25.7588673  63.3744717
  64.4766569  25.3999662  64.5735264  47.8498793  13.9013290  88.2608509
  48.6171246  13.6852980  87.7308559  47.9269791  14.8417616  88.4217072
  57.9360008  31.5476537  76.1715460  57.7035713  31.6674948  77.0923328
  57.3185825  32.1021748  75.6945419  61.9790268  27.1035910  36.2875795
  61.5163803  26.3090491  36.0213232  61.5342712  27.8087211  35.8172488
  35.6537414   3.4018913  49.8132229  36.4306951   3.5672525  50.3472900
  35.7961512   3.9150923  49.0178776  59.7659588   6.9770640  67.2199726
  59.8897552   7.9032260  67.0122957  60.4923439   6.7637855  67.8057337
  59.2320490   9.7321999  54.6139908  58.6608601   9.9607199  53.8806725
  58.6727667   9.8109710  55.3868008  36.3192368  48.4868908  57.4098396
  36.9091821  47.7565336  57.5963163  35.5991149  48.3776903  58.0309105
  70.5912161  15.5807912  58.9720345  70.7133865  15.1954627  59.8396921
  71.2822485  16.2395358  58.9030552  33.5456610  63.9207697  43.1300306
  33.0581903  63.0992126  43.1903934  33.7615323  64.0034914  42.2011662
  58.7920523  34.3691850  80.6071758  57.8531122  34.4600415  80.4448032
  59.2069912  34.7566581  79.8365164  64.6047449  27.7209902  28.7644124
  64.2609406  26.8327022  28.8591528  65.3003597  27.7797008  29.4193196
  36.4692283  37.9568887  23.1485057  36.4247060  38.5314512  22.3842216
  37.1075940  38.3755016  23.7259841  22.8928256  46.4347458  66.3408566
  22.8447938  45.6716442  66.9167042  21.9814444  46.7010546  66.2196207
  18.4178960  48.6360788  41.5061760  19.2069435  48.5002375  42.0307541
  18.5272801  49.5098066  41.1308622  48.4048033  22.6702070  49.4656277
  47.9689550  22.5406933  48.6233187  49.0049410  23.4005284  49.3149757
  54.7997570  32.6853275  89.7782612  53.8875389  32.9719710  89.7343922
  54.8500109  31.9516563  89.1655350  49.2672348  16.4208281  63.7526369
  50.0605774  15.9644091  64.0328598  49.2674112  16.3379645  62.7990294
  55.5142117  40.4565907  57.4714279  56.4371538  40.6968498  57.5531673
  55.1553059  40.5822182  58.3498526  32.3641610 105.8476734  65.0440407
  32.8518558 105.8531952  65.8676624  31.4640284 106.0522461  65.2973080
  44.6370125  24.3843436  64.4842243  44.1211843  24.4932771  65.2831554
  44.0830755  23.8533354  63.9120245  18.7361908  16.9808161  54.9396992
  19.4671047  16.5099585  55.3400612  19.0754414  17.2757947  54.0946388
  80.9274197  11.6220176  82.4152946  80.4883480  11.0499561  83.0447388
  80.2534485  12.2475815  82.1494675  59.0316010  31.7458558  29.8573685
  59.9025869  31.3963461  30.0456858  58.5042238  30.9749007  29.6482491
  88.0829334  12.8785777  40.2233362  87.8588009  12.5079441  41.0769320
  87.2969723  13.3545172  39.9550390   6.4254403  98.3405590  28.4617639
   5.6802690  97.8229141  28.7667179   6.1122274  98.7632370  27.6620936
  54.8105574  23.2344007  59.4070053  54.4019699  23.5919785  58.6186981
  54.0777779  23.0541563  59.9958801 101.3331699  95.7825947  51.3811302
 101.6158581  94.9434662  51.0175753 101.4921665  96.4135361  50.6790781
  20.4182863  27.1907496  55.3472137  20.1034927  28.0945611  55.3310776
  21.2231207  27.2266364  55.8641148  54.8822165  33.7160993  51.6184473
  54.4670582  34.2945194  52.2582150  55.2084160  34.3057632  50.9386539
  50.4021454  32.2447848  76.4468050  50.9233570  32.4717617  75.6767082
  50.5928230  32.9386044  77.0780611  11.5664506   6.5564221  67.2626781
  12.2008896   5.9304732  66.9135284  11.9195306   7.4135685  67.0242119
  33.3229852  31.9248629  66.0847759  34.0025735  32.1287966  66.7272758
  33.0550313  31.0303712  66.2952900  47.3208904  34.8968601  51.6633177
  47.1917725  35.1254225  50.7428217  46.5469694  34.3826580  51.8932581
  46.3805771  28.8701653  42.9820108  47.1366739  29.4372082  42.8303003
  46.1029387  29.0749454  43.8748789  22.2315073  31.2520480  27.7437210
  22.1293902  30.3204584  27.5489259  21.5781689  31.6847062  27.1940088
   2.2132652  35.9656096  63.2349634   2.0990773  35.3160214  63.9286661
   3.1329080  36.2236428  63.2974768  24.4583678  67.5829887  27.7691412
  24.4970942  67.5128317  26.8153024  25.3576660  67.7795410  28.0315542
  24.9588943  31.6443276  55.9303856  24.3612576  31.3892150  56.6332245
  25.2568507  30.8150530  55.5565453  42.8944159  31.7783856  46.9145966
  42.5506830  31.2537289  47.6376534  43.8386393  31.6224194  46.9332266
  71.9422579  72.7467871  12.7952778  71.2762260  72.1992970  13.2110751
  72.7278185  72.2000170  12.7822804  57.8404617  10.4479778  82.4096394
  58.0867624  11.3588238  82.2486210  58.2380247  10.2381587  83.2547092
  34.9872756  32.1932626  68.1053114  35.5606031  31.4363980  67.9841471
  34.9990082  32.3540115  69.0488434  21.4124775  46.2469196  59.7186947
  21.1326146  46.8460655  59.0266466  22.0802021  45.6992769  59.3058205
  77.9002142  49.3664265  79.9132776  78.1814337  48.7221813  79.2635822
  77.0252228  49.6287727  79.6272707  61.5368748  37.8519440  51.7557764
  62.0686960  38.0667591  52.5221014  60.7058144  37.5460601  52.1190977
  80.5323219  63.2807350   1.1507718  80.9072876  63.9549541   1.7173919
  79.7872972  62.9393625   1.6453806  47.7051020  20.0082469  61.1831379
  48.3252192  20.2495122  60.4950428  46.8493700  20.0369525  60.7552004
  74.5141220  18.6152470  54.0010881  75.2337742  18.2193685  53.5095453
  74.7906065  18.5611212  54.9158859  32.4758387  24.8622012  36.3448310
  32.8647852  24.9032617  37.2184825  31.5780568  24.5666170  36.4959979
   8.5500901 105.7513064  50.3319216   9.3213837 105.4390376  50.8050203
   7.8083556 105.4321084  50.8458948  51.2651873  25.5184269  64.0618134
  50.4356527  25.9117699  64.3327045  51.9108629  25.8785439  64.6698046
 105.6437111  73.4280109  23.0628228 106.0171795  72.6147366  23.4024501
 105.0952053  73.1514645  22.3287272  19.7899580  16.1596501  74.3440294
  20.5829930  16.6940200  74.3018866  19.0742934  16.7828166  74.2186499
  49.7141790   4.6539590  28.1219888  48.9083242   4.2138469  27.8515530
  49.5937490   5.5633545  27.8486204  58.0116081  38.3041096  19.1849828
  58.7510586  38.1642222  18.5934806  57.4005508  38.8419938  18.6814725
  37.8141999  28.2385540  80.8940983  37.2134066  28.5625601  81.5651417
  37.3212194  27.5541735  80.4415226  40.5131674  39.1115212  59.4339848
  41.0989761  38.7908006  60.1196957  40.8592129  38.7317181  58.6263752
  83.7877750   2.7520904  64.8101711  83.7834549   2.0193782  64.1942596
  84.7155094   2.9407892  64.9514103  80.2836800  18.2412219  56.3165522
  80.8364201  18.7444615  56.9144297  80.5010033  18.5791445  55.4477501
  84.4567490  70.2737331   8.9007807  83.8433743  70.4263449   8.1819534
  85.1122475  70.9649563   8.8071400  31.2168360  17.3124599  64.0220070
  31.2567210  16.7297626  63.2636499  30.3609705  17.1378553  64.4134617
  34.1457319  35.6574273  34.9353528  33.2627153  35.4143095  34.6571231
  34.0177536  36.1130953  35.7673502  10.4003835  42.8835058  27.0398474
   9.7240180  43.5570908  26.9688034  10.3389132  42.5768375  27.9445076
  30.4105139  33.5500169  65.7566118  30.9954166  32.8579021  66.0649920
  30.9567714  34.3358827  65.7408524  56.1779976 102.5166988  40.1767874
  56.2009525 103.2964611  39.6221018  56.5738916 101.8296432  39.6406436
  25.1389980   7.6277626  26.6809511  25.1639223   8.5400206  26.9697332
  24.2817521   7.5311697  26.2661862   6.3619924  52.1425581  71.6389704
   6.4581889  52.6554394  70.8365202   6.2464339  51.2421751  71.3353443
  54.3303680   5.4978925  52.0615530  53.8264942   5.9935164  52.7070761
  54.3201256   6.0464674  51.2772131  47.0509720  30.3760910  65.5820131
  47.1985388  29.9299932  66.4159489  46.4786386  29.7853851  65.0923872
  41.4449549   5.6337696  35.7308459  40.9455729   5.6052160  34.9147344
  41.6076851   6.5652323  35.8795977  16.0274756 102.0340729  72.8895378
  15.1137757 102.1942520  72.6534653  16.3757336 101.5179062  72.1625471
  47.2174835  31.8323326  50.6192827  48.0083227  32.0088267  51.1288404
  46.5349483  32.3465037  51.0505724  21.7534232  21.5894341  68.4564209
  22.5792670  21.8301415  68.0365753  21.2136126  22.3773026  68.3923674
  56.8862391  25.0942016  70.8752632  56.1306715  24.9537516  71.4458990
  57.6419306  25.0366831  71.4599466   5.2610326 104.7634411  71.9163275
   4.9495518 104.5264721  72.7898598   4.6008810 105.3713799  71.5833998
  59.7778797   4.4004866  32.1302700  59.7931814   4.1084713  33.0417109
  60.5631161   4.0146843  31.7419457  56.8928385  20.1626444  57.4404621
  56.1420488  19.6528745  57.1360207  57.4977732  20.1644492  56.6986513
  52.1508598  45.6659794  29.3452549  52.2551680  45.2262115  28.5014820
  53.0449200  45.8622742  29.6251822  22.3988509  41.6217041  56.0972214
  23.2732487  41.6167402  56.4866257  21.8162680  41.3689804  56.8134308
  48.3971691  42.8420734  51.8007421  48.0435324  42.0974684  51.3141870
  49.3224716  42.8696251  51.5572500  22.2547579  82.0903397  30.8103895
  22.4253416  82.0342159  31.7505932  22.5305629  82.9746628  30.5692959
  34.1564608  29.2566156  52.8763056  33.3219194  29.5548725  52.5146198
  34.4029117  29.9371386  53.5027075  40.8536053  30.8256698  60.1564455
  40.3389120  30.0277424  60.0354624  41.3887739  30.6504250  60.9304714
  90.2551746  71.3306475   7.1970081  90.9532452  71.8363380   7.6131862
  90.1112747  71.7670059   6.3572961  71.3282347  32.5071406  87.5220108
  70.4148865  32.7012563  87.7326012  71.8174124  32.7893543  88.2948589
  43.7169743  34.9507809  73.0930138  44.1843319  35.2787995  73.8612700
  43.0151272  34.4085622  73.4530687  37.9160857  31.4824653  69.2973804
  37.8473783  31.5739465  68.3470392  38.1413960  30.5622101  69.4337463
  45.4167509  30.4410625  53.9043713  46.2170506  30.1817060  54.3609762
  44.7689342  29.7867846  54.1660738 103.4598923  87.2867298  12.4010146
 103.9387894  87.0744228  11.5998852 104.0423870  87.8770638  12.8789508
  22.0055556   9.4139200  68.6804771  21.7235756   8.7859678  69.3456030
  22.9611802   9.4076324  68.7349892  50.2817678  29.7529554  67.6715374
  50.2118111  30.3265142  68.4346676  49.3898869  29.4369721  67.5268459
  58.2602119  31.5769267  66.2433624  57.5279808  32.1774673  66.1040211
  58.9032555  31.8251228  65.5791903  14.2403924  11.4208376  89.9450493
  13.2993305  11.3386774  90.0995922  14.4046140  12.3636782  89.9628162
  44.8509979  10.2694416  61.6114044  44.8087311  10.5804777  62.5156736
  45.2346802  10.9990251  61.1248589  26.7772126  57.5444126  56.1013651
  27.3387527  57.8795481  55.4023743  27.2243643  56.7567110  56.4109087
  33.1556344  94.9549484  53.8357782  33.3523488  95.8896923  53.8973379
  33.8892102  94.5877934  53.3425331  43.8981771   9.7693002  56.8980503
  44.1722965   8.8767856  57.1090221  43.2165241   9.9685204  57.5398350
  17.2228611  26.4156461  29.0260100  16.5077055  26.4250135  29.6621680
  16.9025803  26.9478798  28.2977366  32.4232841  14.4227207  25.4006815
  33.0719733  14.0913391  26.0216641  32.9014826  15.0627553  24.8735070
  63.3403492   9.2074323  30.7584214  64.1856909   8.8256228  30.5220890
  62.9549980   8.5776389  31.3676000  63.6788559   7.3574895  85.9341145
  64.3566132   6.6917902  85.8169746  64.1479492   8.1197608  86.2734222
  41.3321209  26.0949230  73.8487053  41.6654253  25.8885860  72.9754591
  41.0555172  27.0093799  73.7895966  82.8373623  21.0705137  37.8408265
  82.9175091  21.5832686  38.6451244  83.7058640  21.1149907  37.4408770
  36.2051725   9.8216122  63.7043142  36.8078685   9.6810722  62.9740858
  35.7936740   8.9685488  63.8428211  16.8680120  89.9501705  12.7519166
  16.7929113  89.1103458  12.2988355  17.4352884  89.7682285  13.5011351
  52.2770691  11.6991067  27.3803616  51.9013739  11.4923882  28.2361364
  51.8140936  12.4885571  27.0999074  22.7515674  21.3142490  53.3769894
  22.4757886  22.1366978  53.7816572  22.2137022  21.2431550  52.5883961
  24.7444224  30.6037450  32.4338198  25.4044318  31.2829733  32.5726342
  24.0523481  31.0402226  31.9370818  54.4376516  12.6195312  74.1700315
  53.9216471  12.6691675  73.3653545  55.2906656  12.9816246  73.9302731
  42.1300220  12.6930106  68.1256390  41.8623018  12.1064222  67.4181986
  43.0518436  12.8787768  67.9468298  85.6671906   6.3235706  21.5343690
  86.0675621   5.7107723  22.1511483  86.3389111   6.4651465  20.8672976
  57.2752523  32.4983549  57.0889139  56.5031624  33.0370092  56.9158077
  57.9196453  33.1105518  57.4441671  60.0547266  86.5504932  36.6838026
  59.1916275  86.7569828  37.0424867  60.6368303  87.2061157  37.0679188
  50.9697628  24.5032954  58.3764267  50.4064846  24.2359400  59.1026974
  51.8279505  24.1381931  58.5919476  21.8703270  15.4057992  82.4475288
  22.0205498  15.2178395  81.5210629  22.6570845  15.0842249  82.8877926
  66.8388224  36.2656450  84.2235947  66.7906380  35.7231593  83.4364319
  67.2529602  37.0772099  83.9301968  26.0722876  67.0003939  73.0471039
  25.9985757  66.3560295  73.7510872  25.4930854  67.7141571  73.3141184
  43.9334297  28.7946653  50.4783392  44.5993423  28.5585093  51.1241055
  43.1202745  28.8462234  50.9806919  11.6719425  42.9358721  59.8849678
  11.7837822  43.8537931  60.1322317  12.3987961  42.4825096  60.3120327
  54.8919487  38.1939411  52.4056244  54.9441624  37.6396847  53.1842804
  55.4912138  38.9180994  52.5864697  17.4444294  22.4499512  74.4813871
  17.3722458  23.0320716  73.7249756  16.6103387  21.9808531  74.5030642
  77.3383617  19.0535295  88.7826824  78.1521416  18.7112296  89.1525841
  76.8743610  18.2783639  88.4663773  37.1200466  33.2907557  57.3012209
  36.9754457  33.4373832  56.3664389  36.9375324  32.3598027  57.4286842
  45.7960224  30.5132174  62.9792595  45.5870533  31.3278484  63.4363556
  46.5990162  30.7087398  62.4963474  34.6373677  34.0726399  50.1171589
  34.8251820  34.0989256  51.0553837  35.4962969  34.1337895  49.6991491
  50.9500360  36.0098100  55.7686186  51.8595934  36.1292052  56.0418987
  50.7792950  36.7431331  55.1775932  42.6054573  41.9150209  69.4047213
  42.3846483  41.5655613  70.2680588  42.0638704  42.6995134  69.3181944
  68.8654709  33.5204864  30.7042170  69.7522926  33.7680840  30.4425287
  68.9041710  33.4650922  31.6590285   9.4581413  16.0864353  54.4806957
   9.8883337  16.4330018  55.2623987   9.5096397  16.7986858  53.8432932
  12.4117744  20.3627563  86.0820389  12.2972274  19.6614504  85.4407310
  13.1555367  20.0810957  86.6146946  49.0253687  18.5086370  65.5578327
  48.1510496  18.7270403  65.2351952  49.4302893  18.0206597  64.8407888
   4.4777641  20.0537825  57.6667690   4.3508950  19.7612739  56.7642307
   3.7585440  19.6502376  58.1526756  27.4009895  33.9200735  89.8575592
  27.5103140  34.8271871  90.1429081  27.9285908  33.8541341  89.0616131
  72.3704672   1.9594087  73.2101822  73.2500982   1.7920645  73.5485315
  71.8017006   1.8899895  73.9769411  31.4565134   8.5721183  63.1642580
  30.8350945   8.0508947  63.6725855  31.6620135   8.0265599  62.4050665
  24.8554134  12.1013725  64.2383718  25.7032180  12.2774065  64.6463776
  24.3700838  11.6064489  64.8984766  90.6414509  86.5764904   1.7565231
  91.2938881  86.0197639   1.3315317  90.4149437  86.1090851   2.5605455
  65.2734518  33.6271358  49.3202353  65.7830906  33.3572483  50.0842142
  64.4765997  33.0986881  49.3650341  37.5400758  85.8593750  57.7489471
  37.5707555  86.7161274  57.3231840  38.3880806  85.7783508  58.1854773
  74.7173071  13.6196744  41.3724089  74.8286533  12.6951718  41.5940523
  73.8164806  13.8200843  41.6265297  45.8480406  16.3008642  67.4249363
  46.5029240  16.4426792  68.1084919  45.4663420  17.1658993  67.2757673
  15.2134669  28.2770109  50.5845594  14.8348331  27.8759694  51.3668823
  14.4864249  28.3240151  49.9637270   5.7074918  72.5641606  -0.1664940
   5.8000459  72.6184378   0.7846722   6.5422430  72.8857599  -0.5070988
  22.6231718  13.4726632  41.4770746  23.4102845  13.7846529  41.0305882
  22.1254373  14.2675447  41.6685295  54.5987558  34.5376468  59.3919134
  55.3374004  34.7776651  58.8324213  53.8990736  34.3092036  58.7799549
  41.4499903  95.3077412  53.5972786  40.6108046  95.5665302  53.2164526
  41.4020681  94.3535805  53.6565018  37.1940899  25.6694841  59.7571564
  37.3464179  25.4518604  60.6767607  37.2283530  24.8276091  59.3029499
  30.6051040   1.2946364  25.4966998  30.7443714   2.2416291  25.5030513
  29.6800852   1.1900747  25.2739000  42.8133106   7.9211652  69.9144506
  42.4921799   7.0224220  69.8411798  43.6398220   7.8421044  70.3907490
  49.7353601   9.6412611  62.2602034  49.2001486   8.9294112  61.9094181
  50.6204796   9.4509935  61.9494057  52.2939205  19.5100796  47.8380108
  51.5190935  19.5132673  48.4000301  52.5475693  20.4308772  47.7745581
   1.2369150  36.8666673  68.4088039   1.5874992  37.6437759  68.8440323
   1.0996073  36.2371445  69.1166735  25.9221220  24.7262239  77.3918295
  25.6899524  23.9904809  77.9584122  26.8417859  24.9012709  77.5913525
   1.3647926  32.6472640  60.0802708   1.2462528  32.1026659  60.8584690
   0.5530042  33.1500816  60.0138903   0.4960776  73.4593344  14.3560278
   0.1955920  73.9649343  15.1112139   1.2834156  73.9161110  14.0599096
  95.5281925   1.7820983  66.6952085  95.8537197   1.9797824  65.8170366
  96.3044739   1.8246372  67.2536039  66.0092258  13.1748569  32.8021765
  65.5940390  13.7811112  32.1887374  65.3601122  13.0532634  33.4950686
  56.8851280  34.8264766  71.0932446  57.7242422  34.8056388  70.6331539
  56.2733507  34.3971372  70.4952240  40.1872921  13.4993839  48.9824533
  39.4430065  13.9940751  48.6395884  40.0464916  12.6062810  48.6681652
  43.1875801  40.3108454  36.9516015  43.8390207  39.7360754  36.5497375
  43.3728886  41.1756659  36.5855789  15.0639033  24.7202587  47.6431465
  14.1418624  24.8152423  47.8819990  15.5377376  24.8347139  48.4669256
  78.7667561  29.9774456  38.5667586  79.1041231  29.5194602  37.7969098
  77.8296375  29.7824264  38.5699105  34.4956565  17.2675276  77.1251965
  34.3160510  18.2075977  77.1096373  33.6800194  16.8729258  77.4338341
  42.5561714  36.7442226  67.4443436  42.5683689  36.7602253  66.4873552
  43.4010363  36.3662052  67.6883554  72.1103239  28.5815024  47.5696611
  72.6870584  28.1410027  46.9455004  71.9993877  27.9498529  48.2802534
  60.9532547  10.2701426  76.1090612  61.0824013   9.9337882  75.2222586
  60.1035023  10.7096159  76.0771465  15.2849126  21.8050456  55.8846378
  16.0736454  22.3450708  55.9346771  14.9256659  21.9856977  55.0159979
  50.0152397  31.6448021  72.8289318  50.3151417  32.4064994  73.3250237
  50.8200645  31.1996150  72.5638008  13.3533001  44.1476870  35.9982085
  13.4761822  43.7095261  35.1560998  13.3364379  45.0801849  35.7828021
  50.9130430  39.2288399  51.4997005  51.6978550  39.0373015  50.9862614
  50.9026146  40.1830721  51.5743017  36.8794990  22.3310184  77.7840948
  37.8007174  22.3254323  77.5241804  36.6095042  21.4143467  77.7289200
  27.3570561  95.5545044  73.4974051  27.2798538  95.8058643  74.4177771
  28.2047057  95.1135826  73.4398317  35.5771923   4.2487296  69.9027681
  35.6129861   5.2044368  69.8630857  36.0073805   4.0270233  70.7286119
  56.9170332  43.1802702  51.4673853  56.1883831  43.3169317  52.0728779
  57.6469851  42.9152346  52.0269918  59.4768238  41.1533213  50.8358335
  59.6780252  40.6676626  51.6357660  59.6886396  42.0623875  51.0478735
  57.8936195  42.0072317  57.0716572  58.2485104  41.1191130  57.0325232
  58.6646986  42.5741816  57.0560360  40.3221512  26.0133314  61.5295267
  41.2659788  25.9580922  61.6790724  40.0552607  25.1121831  61.3480473
  40.7051086  39.1631937  54.0626001  41.4897919  39.1669869  53.5144329
  39.9798393  39.0907550  53.4421396  52.9950714  39.8802280  62.6507187
  52.5995159  40.7440853  62.7669811  53.7209225  39.8632503  63.2744837
  45.3351927  24.0643573  51.2260294  44.7977734  24.1395640  50.4375172
  44.7619629  24.3553543  51.9352245 104.4824314  19.4674265  81.5436268
 103.8595963  19.3623769  80.8244133 104.9096966  20.3061700  81.3698673
  35.8994174  96.6813087  61.8686533  36.4302182  96.2257576  62.5220728
  36.5081310  96.8690395  61.1541891  50.8765602  35.0554991  59.1493845
  51.2393332  34.3782473  58.5784578  50.9148502  35.8558989  58.6258125
  82.8424740   0.2963083  60.6681919  83.2941246   0.8954513  61.2625647
  82.9146481  -0.5596682  61.0904837  52.5857353  37.7189398  53.8276434
  53.1570959  38.4442163  54.0801334  52.0156097  38.0869889  53.1525612
  47.4676609  42.7620792  54.5870972  47.8189611  42.5709772  53.7174416
  47.6416254  41.9696856  55.0951195  36.6120243  37.5455523  37.7399302
  36.8076992  37.0798039  38.5529637  36.1034012  38.3076549  38.0169344
  31.6179824  51.2253952  39.3411493  31.7739916  51.9102621  38.6908746
  32.4617577  50.7821083  39.4292736  53.2917023  17.4117875  68.0577660
  53.1593275  17.0239222  68.9227915  52.4079800  17.6006687  67.7421904
  36.4331198  72.8551531  32.8571510  36.3744164  73.4111357  33.6341143
  35.5444050  72.8456640  32.5017214  43.0292225  45.2386856  54.8720121
  43.3947420  45.3470993  55.7500029  43.6460972  44.6585941  54.4257069
  44.4575453  17.4542916  24.7966814  44.1860580  17.6767111  25.6872201
  44.2519426  18.2345152  24.2816949  57.5250769  38.4637785  50.8325005
  57.5489235  38.4537840  49.8756504  57.5008774  39.3927956  51.0617924
  40.1319742  30.9892964  56.0371542  39.7707152  31.4916825  56.7674541
  41.0603952  30.8925462  56.2490463  55.2687407  26.6986942  29.0843058
  55.2985334  26.8448400  28.1387997  54.5329571  27.2314811  29.3859482
  20.9978414  32.3368239  55.1751757  21.2568617  32.6931071  54.3253517
  21.2448072  33.0145788  55.8043718 110.4985237  93.7397861  11.9438386
 111.0167503  93.4906197  11.1785984 109.7394276  93.1572151  11.9190586
  56.3808250  46.7887402  54.8571968  55.4523754  46.5863228  54.9722958
  56.7470980  46.0066223  54.4444418  35.7542896  35.0149179  63.9765644
  35.4523945  35.8010054  63.5214186  36.6984558  34.9954295  63.8203573
  64.4632292   8.2187301  63.0640984  63.9230108   9.0079516  63.0251026
  64.0426540   7.6731968  63.7287331  63.6172962  40.7813549  90.2269745
  64.2425537  40.0847387  90.4269981  63.3679247  41.1321306  91.0819626
   1.0848530  80.0022030  75.8376265   1.4843614  79.7607470  75.0019693
   0.1717748  80.1908112  75.6209564  77.1453857  69.9485111  62.9348755
  76.2245798  70.1327276  62.7493620  77.2845936  69.0626526  62.6000500
  81.7022133  88.5314083  52.7385902  80.8856773  88.9041805  53.0710840
  82.1918678  88.2881546  53.5242748  73.2452154  55.1779127  62.3417521
  73.7542200  54.3723869  62.4326897  73.7868643  55.8512545  62.7534056
 103.9094067  57.1652460  73.8023090 104.6609306  56.5728951  73.8259745
 104.2817307  58.0152798  73.5676765  99.0934753  74.0314341  67.3637962
 100.0045967  74.0853834  67.6522017  98.5818195  74.1314220  68.1665707
 100.0257683  85.2418804  78.6776781 100.5031681  84.9374676  79.4494629
  99.1899300  84.7768307  78.7142086  79.9439573  67.9214096  89.0662193
  79.2761517  68.2209206  88.4493256  79.6154833  67.0808744  89.3853378
  71.7126942  78.0229568  53.2301617  71.5189743  78.9417219  53.0442095
  70.9453630  77.7083826  53.7081623 103.8818169  79.3965197  79.8390532
 103.7960434  79.3804741  78.8858414 104.2047977  78.5242891  80.0651836
  65.6439018  51.6405869  54.3696117  65.8308315  52.5379992  54.6451855
  64.7182894  51.5139294  54.5780087  93.4376812  79.8806620  37.8570962
  94.3377304  79.5596743  37.8012586  93.1232452  79.8704815  36.9530725
  81.2936974  86.5297985  44.3237782  81.3627243  87.3465347  43.8293982
  82.0332241  86.5541553  44.9310112  72.1056032  95.2617741  79.5377874
  71.4077139  94.6435356  79.3210793  71.6515303  96.0890961  79.6977806
  67.7021456  54.6995735  48.8501930  67.4334002  55.6169462  48.8008690
  68.0536938  54.5059252  47.9812002  75.9170341  50.0133181  60.8343554
  76.2997913  50.3983784  61.6226816  75.0749159  50.4574871  60.7354593
  98.1064510  80.1561451  78.9962435  97.9710674  79.4072294  79.5767879
  97.8676224  79.8322105  78.1277609  66.1754274  77.0863533  59.5724630
  66.9549561  77.1276236  59.0185118  65.5904627  77.7532244  59.2128420
  65.9321451  68.0961514  71.2706327  66.2227440  68.9995527  71.1455488
  65.4127073  67.9014587  70.4905605  77.6194811  73.4187889  70.6494427
  77.8944683  74.1160679  70.0541115  77.8995514  73.7180805  71.5144396
  37.7681088  67.1947670   7.8345960  38.3431888  67.8082657   8.2919103
  36.9069147  67.6120186   7.8564858  66.7131472  53.9988708  55.0535679
  66.8508339  54.1778660  54.1233873  67.5662947  54.1587114  55.4570770
  94.2218399  81.7412853  63.1948090  95.1690388  81.8267822  63.0864429
  94.1168976  81.0467625  63.8450861  59.5530272  82.6708984  64.2691135
  58.6952114  82.4885082  64.6526766  60.1311159  82.0098114  64.6499014
  52.3231745  78.7123108  45.4862690  51.7789412  78.0421877  45.8997583
  51.9911718  78.7713051  44.5904303  89.2479229  68.8540697  45.9071112
  89.8774719  68.1694603  45.6808138  88.8460732  69.0952921  45.0725079
  76.7973948  76.8607664  37.2401953  77.3871231  76.9575739  37.9879117
  75.9422684  77.1335793  37.5727057  75.8526564  61.8984413  49.2018652
  75.1539135  61.3206673  48.8949966  75.8496618  61.7935419  50.1532936
  93.8220501  86.8807697  65.0382185  93.7468147  87.1839333  65.9430218
  93.1262398  86.2300873  64.9450016  62.6212072   2.6834518   8.3758014
  62.4270153   2.1533738   9.1488081  61.7631817   2.8890729   8.0046701
 109.7878456   3.1127217  71.6926193 108.8672733   3.3406436  71.5628910
 109.9563694   3.3117080  72.6136208   4.0469533  57.4571657  50.2562523
   4.3708977  57.9465389  49.5000744   4.8305586  57.0646048  50.6410742
  48.3079243  76.0561514  42.8158426  48.7579775  75.3763676  43.3174133
  47.7537251  75.5738068  42.2022963 102.9703999  56.9165707  28.7184882
 102.7352905  56.1644840  28.1750584 103.7086296  57.3203373  28.2621694
  77.3619080  59.3850613  39.7731924  78.0112743  60.0233173  39.4779348
  77.8679657  58.5913658  39.9469352  76.9882011  43.0637789  58.7976408
  76.2137270  42.7963543  58.3027554  77.7186489  42.6405191  58.3465004
  67.8032207  50.1115370  54.6967077  66.9917631  50.5889559  54.5239782
  68.4437990  50.5059624  54.1048288  73.2390976  58.5704565  42.7068663
  73.7292385  59.2535257  42.2492599  73.1434822  57.8706408  42.0608425
  72.8183031  57.3941517  60.9220552  72.5851107  56.5666437  61.3428783
  72.2592258  58.0447388  61.3467836  82.7439785  62.8579998  65.7521105
  82.8304291  63.4491301  65.0042295  83.2450390  63.2799292  66.4500713
 100.4362011  60.8620644  67.6781702 101.1532688  60.4247570  68.1373072
 100.0606441  60.1826143  67.1182251  74.4022655  62.2297907  37.7634048
  73.9707804  62.9558945  37.3130417  75.3255653  62.4806213  37.7922726
  84.8459339  66.8701887  28.0405116  85.2364445  67.7433491  28.0040455
  85.2427864  66.4622879  28.8101625  75.2439976  53.2579565  62.1120405
  74.8707294  52.7353287  61.4022779  75.8193254  52.6518393  62.5787878
  83.8386345  54.6706581  62.9996061  83.9909172  53.7269163  62.9506540
  83.1414890  54.7674417  63.6483431 101.1860085  69.8558903  60.8843708
 101.3205051  68.9081955  60.8881807 101.6803360  70.1649046  60.1251745
  99.5158577  91.0780621  57.6503611 100.2979469  91.6217136  57.7452850
  99.8544407  90.1941109  57.5081444  89.3844795  80.0973988  56.9405556
  90.0574875  80.5734444  56.4540625  88.6581039  80.0116825  56.3230801
  60.5557966  79.2588854  80.2259922  60.4581070  78.7502432  79.4210243
  59.8319435  79.8847771  80.2031517 108.0715179  96.4361191  50.3996944
 107.4175072  96.6917133  49.7491741 107.6656246  96.6430664  51.2415075
  78.0640697  70.7513523  41.3614750  78.5475731  71.4527845  40.9250641
  77.4672318  70.4188108  40.6910753   8.9594722  70.7197523  53.9178801
   9.1504681  71.2268162  53.1288052   8.1753546  71.1302471  54.2824173
  47.4336338  78.4885359  52.9750633  47.6760769  79.4135618  53.0172348
  47.5722265  78.2461071  52.0595026   1.9013812   9.9961191  82.8000736
   1.0154690   9.7238058  82.5608253   1.8060666  10.3837800  83.6700535
  94.9501038  85.7108879  47.5750780  95.7858276  85.2844524  47.7646637
  94.8782730  85.6835651  46.6209698  53.4932518  94.4470310  62.5233603
  53.7886333  94.0301132  63.3327818  54.2999554  94.7195911  62.0861197
  87.5269985  74.2895460  69.0042067  87.5038528  74.1588640  69.9521637
  86.9975090  73.5746765  68.6508894  91.2245083  70.2391720  79.0711927
  91.7291069  69.6523762  78.5079098  91.2367344  69.8161936  79.9297762
  86.4112282  69.1773224  71.5727854  86.7263222  69.1174078  70.6709194
  86.9165039  69.8943806  71.9558811 100.6283569 104.2401791  56.7422295
  99.8414230 103.9271069  57.1882629 100.6177902 103.7932205  55.8958530
 109.5246029  53.6854696  80.1990700 109.3990326  52.7484941  80.0489235
 109.2027664  53.8307095  81.0887623  73.6420918  81.2907696  48.5119390
  73.3340549  80.8210659  47.7368736  74.1632795  80.6465149  48.9910316
  59.1175556  77.0326662  61.5312338  59.8031139  76.9260454  60.8717871
  58.3806801  77.4111366  61.0516500  80.8128548  94.3310356  70.3154421
  81.2961578  95.1519012  70.4094076  79.9561119  94.5119095  70.7021046
   8.5498726  64.5147800  49.1966200   8.6093944  64.6442366  50.1431561
   7.7379304  64.0232277  49.0726995 100.2974796  46.9349670  65.1847363
 100.7081032  47.7644396  65.4288721 100.4767323  46.8453217  64.2487526
  78.3921909  96.5487480  50.7456350  78.0440140  97.3695374  50.3973436
  79.3411207  96.6321278  50.6517553 111.5413284   5.1529557  61.2906694
 111.6758347   5.0196505  62.2289515 112.0719814   5.9210747  61.0793877
  95.2553749  71.1774445  86.6454792  94.9116230  71.2490177  85.7550049
  95.2774048  72.0788002  86.9668865  87.7249050  87.6170254  64.8402309
  88.3550930  87.6211643  65.5606937  88.2584190  87.7373219  64.0546560
  80.4067135  94.5149422  55.9058094  80.7637024  94.7580910  55.0516033
  80.3045940  93.5642624  55.8609104  85.9694004  39.5299768  58.1567240
  85.4278564  40.1114321  57.6229906  86.6484547  40.0997353  58.5179758
 105.9699154  69.7110319  40.8346987 105.5100155  69.4035625  40.0535536
 106.2166786  68.9105844  41.2979746  93.1830025  73.7653971  67.5679064
  93.3914566  72.8447199  67.7264595  93.3923626  74.2038393  68.3926296
  65.9630060  97.1720505  48.5019207  65.3382874  97.2654247  49.2211199
  66.5760469  96.5012932  48.8027382 103.6049652  89.2870808  45.9559107
 104.0171337  88.4520054  45.7345772 104.2794418  89.9421120  45.7763577
  84.2963982  71.3754654  63.3191538  85.1797771  71.3652420  62.9506969
  83.9511299  70.5013084  63.1378460  50.1979303  11.2737131   1.1870474
  50.9368277  10.8294034   0.7712941  49.4308901  10.9659290   0.7041863
  73.5016775  53.6676025  57.8845024  72.7444029  54.2519188  57.9211521
  74.1569185  54.0895891  58.4402180   8.6223501   3.3259377  47.7130795
   8.9921069   4.0796307  47.2532320   7.6752305   3.4320447  47.6239824
  47.6145411  71.6860867  57.7338886  47.9075384  72.3894644  57.1545410
  47.9430962  71.9348764  58.5978270  67.5931311  77.1492577  56.4292479
  68.1944847  76.8531799  57.1125793  67.4754810  78.0833578  56.6020107
  25.2712679  59.9983931   5.6942987  25.9143305  60.0616646   6.4004850
  24.6430755  60.6965590   5.8791435  46.9872046  69.7558832  64.4066572
  46.7262459  69.0534544  63.8110685  46.1695528  70.2059841  64.6190023
 104.6368408  95.9811115  57.6880884 103.9853477  95.2810383  57.6469326
 105.0272942  95.9965992  56.8142796  75.8724976  75.9979248  33.2545114
  75.4326916  76.8000126  32.9726315  76.5574265  76.2977076  33.8522005
  12.0394158  50.8950329  12.7479434  12.8541517  50.9845018  13.2423460
  11.5331233  50.2456951  13.2360613  72.8900909  71.2757540  58.1263399
  73.1189775  72.1925068  57.9733419  72.5351381  70.9747028  57.2899151
  81.7131138  84.6397400  72.9916000  80.9220600  85.0489140  72.6408291
  81.5933228  83.7048340  72.8247690  80.2560997  64.8837471  66.2810087
  80.4770947  64.1208458  65.7468033  80.6929207  65.6157207  65.8455420
 106.5155697  70.5480528  87.2675610 105.6625843  70.2030754  87.5314331
 106.9494057  70.7700968  88.0914116  89.6775150  54.3531322  52.1807909
  90.5202293  54.5890522  51.7929602  89.8485851  53.5338402  52.6452541
  43.3049250  12.4670994   0.3233227  43.5253859  11.5559089   0.5166128
  43.2052517  12.8768706   1.1826157  44.2270470 100.0403214  40.6627321
  44.2133760 100.4958630  39.8209882  44.4182587  99.1294765  40.4390621
  55.2010679  70.5363369  80.8472538  55.0056791  70.4743052  79.9122620
  54.3911839  70.8619022  81.2401009  36.6612005  81.8429375  58.3258295
  37.2293639  81.2856293  57.7940130  36.5683508  82.6470947  57.8150177
  46.5076876  58.4780312  53.7918711  45.8648443  57.7693796  53.7635946
  46.6295052  58.7275887  52.8758430   0.2890146  52.4665928  27.2621584
   0.4861329  53.4032726  27.2625065   0.0533927  52.2710848  28.1690717
 108.2656479  42.7944326  50.3501654 108.3146954  43.0028439  49.4172192
 107.7347851  43.4972191  50.7249928 106.1594677  96.0484409  70.3489637
 106.2283421  95.9166908  71.2945461 107.0587158  96.2100124  70.0635195
 101.9498539  63.2032013  68.3436060 102.2892189  63.5374498  67.5133371
 101.3415241  62.5085306  68.0914211  76.8385029  92.6159859  70.6051874
  77.2599316  92.3374462  69.7921419  77.3306084  93.3907700  70.8767986
  35.7381868  28.6746478   9.0482390  34.9712038  28.8959336   8.5200334
  36.4759874  28.7519574   8.4433377  60.1420689  51.8860292  22.0689440
  59.1857243  51.8865108  22.1094322  60.3468037  52.3134089  21.2372828
 100.6645012  70.6663036  55.5447721 100.2111244  70.6303120  54.7025204
 100.1612473  70.0829268  56.1127901  92.2479439  79.4597578  70.0141573
  92.3750114  80.3241920  70.4050875  91.3361835  79.2413187  70.2070808
  72.9471540  96.0196304  61.2124538  73.5469961  95.6439304  61.8568707
  73.5056353  96.2457848  60.4686928  75.9353781  64.6814537  66.9902849
  75.9644270  65.5992079  66.7198896  76.6985369  64.5747948  67.5581312
   3.9851394  76.9293022  53.2426262   3.5376611  76.3688803  52.6086521
   4.0903309  76.3775826  54.0177202  98.2469273  47.1902704  60.6189966
  98.3862972  46.2462044  60.6934595  97.9413986  47.3171616  59.7207832
  83.8182449  79.8782253  52.4322128  83.3290863  80.0456619  53.2377672
  83.8783169  78.9242125  52.3823881  69.1298676  73.5208321  40.6896353
  69.6266317  74.2852736  40.3979397  69.7368479  72.7877045  40.5880022
  96.4134884  80.0294113  72.9322004  95.5658054  80.3023052  73.2831860
  96.9025803  80.8453274  72.8258610  68.9256191  73.1785822  76.1231947
  69.5821333  73.3450317  75.4467916  68.5726166  74.0433836  76.3323212
  93.1003094  79.8650217  56.9746113  93.0969334  80.4128456  57.7595377
  92.5015736  80.3062153  56.3720322  85.1835346  84.7233105  73.0876923
  84.7850800  83.9138794  72.7678585  84.7308922  84.9038315  73.9115572
 107.0307350  94.2537498  53.1056356 106.8163681  93.7189007  53.8699722
 107.6787090  93.7375164  52.6261902 104.4399929  70.6336689  61.0313654
 103.5608482  70.6104040  61.4092541 104.3097782  70.9627247  60.1419878
  11.1365831   1.0420422  41.0640097  11.0799122   0.1411075  40.7456779
  11.2625015   0.9547370  42.0088673  85.2634430  61.6923380  60.3103304
  84.4681454  61.1608553  60.3458786  85.5415821  61.7685509  61.2230539
  73.8722944  76.5492535  54.1692019  74.1683292  76.6800022  55.0700378
  73.2525396  77.2622204  54.0148878 108.1336021  80.8208275  67.5696754
 108.0501652  80.1925564  66.8523550 108.0620289  81.6770077  67.1477127
   5.5483174  12.1493304  20.3834605   5.6788462  11.2480974  20.6783748
   4.7722694  12.4467242  20.8583689 110.7479286  79.2119169  60.3778601
 111.1328220  80.0608826  60.5954647 110.9192848  79.1039705  59.4423342
 101.0361862   3.6068457  32.3660350 101.6351795   4.3441862  32.4833512
 101.2914848   2.9807198  33.0435443  57.3150873  67.1499634  55.0277567
  57.4788237  67.8526545  55.6567621  56.4704466  67.3714972  54.6356583
  64.4043875  74.0923929  78.5758543  64.3428612  75.0325871  78.4071016
  64.8338556  73.7369871  77.7977324  83.6068344  58.4899759  54.4585609
  82.9130268  58.5074472  55.1177692  84.4062233  58.3193350  54.9566460
  85.9737587 100.7838249  41.2013054  86.7885971 100.9429836  40.7249212
  85.7622337  99.8690414  41.0151386   8.8016737  37.5020742   1.9206333
   8.6566371  37.0327353   2.7421659   8.4505105  38.3781433   2.0800698
  69.2266941  34.0135479  78.3513308  69.1542482  34.3163657  79.2564726
  68.6587620  34.6031785  77.8553247  97.5813103  64.8756599  68.4344578
  98.3303547  64.3929291  68.0849743  96.8195820  64.4642735  68.0260801
 102.2736740  58.1088448  86.0303593 101.6293907  57.4098158  86.1421204
 102.6949501  57.9146624  85.1930809  66.5522480  77.2015762  40.6981993
  66.6656399  76.3452673  40.2857542  67.3788452  77.3589945  41.1544752
  89.9376392  46.6238642  68.7606096  90.3252125  46.6843319  69.6337461
  89.9998760  47.5119305  68.4089088  92.3034191  76.5821218  71.4009857
  91.4188576  76.2788677  71.6055202  92.1833611  77.4802637  71.0925055
  87.0855236  79.0952396  20.7076931  86.8288612  79.9828720  20.4577589
  88.0068207  79.0324068  20.4557061  26.4719748   0.1674066  74.8824406
  27.1352625   0.5952000  74.3408966  25.8292413   0.8539123  75.0608683
  59.5343924  62.1527433  18.9364898  60.3629351  61.6935682  19.0740156
  59.6246767  62.5564003  18.0732739  81.6332817  18.7930501  33.1626081
  81.2740040  17.9357374  32.9342031  82.2714710  18.6093652  33.8519549
  26.3286448  49.6122646  68.9155197  26.2335634  48.9704800  68.2117414
  25.4516792  49.9801350  69.0242910  75.2187777  73.2553530  76.1211395
  74.8404217  72.3960400  76.3073206  74.9749470  73.4326696  75.2126598
  78.2123566  70.8838081  69.6200180  78.3747196  70.8495569  68.6773109
  77.7329922  71.7019176  69.7509289   0.5074987  86.4481258  56.5629578
  -0.0400860  87.2200680  56.7060757   1.3982192  86.7499256  56.7411757
  73.0214691  58.2648897  56.3724566  72.5090647  59.0692949  56.2911940
  72.8013515  57.7605486  55.5892420  72.3915386  74.9085426  49.2929554
  72.7541018  74.0236425  49.2513180  73.1432629  75.4661894  49.4933891
  74.8427010  74.1995716  66.8671513  74.1441917  74.5722485  67.4051332
  74.8598719  74.7483921  66.0831070  62.6815605  80.0906277  60.8905649
  61.7492914  80.1840782  61.0864449  62.9196072  80.9122849  60.4611015
  79.9530983  81.9855690  77.5947094  79.7309351  82.9165936  77.5865793
  79.3073177  81.5801716  77.0160437  95.8055592  70.2273226  43.5552502
  96.2530613  69.4187593  43.3058548  95.8741760  70.7873392  42.7820063
 108.5514450  45.9229279  82.1524048 108.3004379  45.0333405  81.9036865
 107.7204132  46.3712645  82.3092937  61.4138031  11.9495034   1.8287183
  62.2813940  11.5468812   1.8662794  61.5559149  12.8518403   2.1147707
  72.5885439  65.4645491  45.9591150  73.4978056  65.4594088  45.6600332
  72.6276255  65.8417749  46.8379831  54.9429750  81.2779808  59.7287512
  54.3315983  81.9517422  60.0262451  55.2868652  81.6150379  58.9014864
  99.7216606  62.3128891  77.7763748 100.3921223  62.3094893  77.0932150
  99.5786858  61.3877726  77.9762506  75.8541107  84.7299290  34.4563150
  74.9998617  85.0904083  34.2185163  75.9398031  84.9140835  35.3917170
 108.8142395  56.1885452  42.6300240 108.2767200  56.1566210  43.4214115
 109.4179726  56.9160891  42.7797365  84.4297314  64.7031832  61.3763475
  83.5670471  64.3437338  61.5832233  84.2840099  65.2439976  60.6001282
  80.8943844  75.1003313  80.0551510  80.5456734  74.8896790  80.9213257
  81.4359379  74.3453932  79.8248959 106.9775009  87.6491928  55.8592987
 106.5769577  88.4620571  55.5509949 107.6603031  87.9339695  56.4666796
 111.5587616  14.8640549  59.6787024 110.7789993  14.4813132  60.0808239
 112.1947289  14.9169362  60.3921366  32.2156644  30.7576466   3.3310854
  33.1017852  30.5054379   3.0714425  32.3419785  31.3364935   4.0828916
  41.9562340  57.7919197  56.0560799  42.2770405  58.4087038  55.3981304
  42.0167303  58.2706165  56.8827724  72.9934120  83.6874008  35.4648209
  73.3608866  83.3580875  34.6446133  73.5541821  83.3147717  36.1451960
  57.5556993  82.1549988  41.4014673  57.0938826  81.4986420  41.9231415
  57.8905344  82.7798843  42.0446157 101.6715336  59.2419624  53.8414145
 102.2170258  58.9299393  54.5634270 101.8194008  60.1874495  53.8207626
  75.4484797  57.9364061  60.7074547  75.3977776  58.1279945  59.7709942
  74.5863628  57.5829268  60.9266329  64.8968792  88.5929775  56.4642859
  65.3278351  89.2260933  55.8901072  63.9638805  88.7895966  56.3800955
  60.3470230  54.7124624  12.1673834  60.0995970  53.9983368  12.7547753
  60.3409672  55.4922152  12.7225232  90.0931454  68.7178421  65.5702639
  89.3675613  68.9586163  64.9942589  89.8247337  67.8849745  65.9582376
  85.0929928  83.5466576  58.2716036  85.8308792  83.5821152  58.8802910
  84.4193554  83.0539322  58.7402868 100.3851509  84.4416237  50.8276606
 100.6954670  85.0398254  51.5074301 100.6892395  84.8318195  50.0082064
  99.5095921  87.9657841  87.9319572  99.1940784  88.6252499  87.3140812
  98.7215519  87.4945927  88.2025051  58.9171505  88.1055927  77.5605440
  58.2541895  88.1524372  76.8716908  59.5639896  88.7673759  77.3158360
  81.0935688  63.8270283  53.3494711  80.8725643  62.9810524  53.7389851
  81.5847683  63.6054564  52.5583553  92.9425526  50.7468843  34.2815208
  92.4750710  50.6120539  33.4571981  92.2508240  50.8507299  34.9349451
  31.1241674  22.2118282   7.9682696  31.9297695  22.7207899   7.8777373
  31.4198160  21.3401270   8.2308710  55.1957083  78.9221716  80.2269077
  54.4737530  79.1384268  79.6367836  55.4882860  78.0569839  79.9404097
  80.7724857  53.0112600  74.8125505  81.4349079  52.7805233  74.1612530
  81.2639618  53.1163740  75.6271887  81.6951275  71.6851234  63.0117941
  82.6503468  71.6791916  63.0731773  81.4176273  72.3344994  63.6579609
  79.0924454  19.7574115   1.4384775  78.3777237  20.3026104   1.7673540
  78.6561823  18.9981055   1.0520107 107.0148468  84.0185070  75.7137918
 107.9192257  83.9085388  75.4201460 106.9064522  83.3655262  76.4052439
  66.1046505  72.4361897  33.9235163  65.1930571  72.3579979  33.6422420
  66.0526705  72.8102398  34.8030710  78.0634212  28.3628058  15.5524564
  78.7404346  27.7609706  15.2431357  78.4084463  29.2334914  15.3547239
 111.1862469  98.2108021  52.1626139 111.9234180  98.7208557  51.8269587
 110.5270195  98.2584476  51.4702415  51.2771082  26.8841243   5.5522156
  50.9972095  27.7906394   5.6791770  50.7844830  26.3875961   6.2056780
  95.5798244  66.5660429  49.4928885  95.9776306  67.4303722  49.5974255
  95.9758377  66.2150002  48.6952829  89.8089123  67.5096655  62.0660830
  89.8819923  66.5584040  61.9886637  89.0067101  67.6480675  62.5696087
   2.1653962  82.1836472  85.3211594   2.5928932  82.3285007  84.4770622
   1.4618954  82.8321838  85.3477764  88.7232304  57.2005749  25.1325631
  88.3329105  56.5904379  24.5067716  88.1129169  57.2105122  25.8698916
  58.0050707  69.4023323  56.6104460  57.6271200  70.2757549  56.7130041
  58.1628084  69.1029692  57.5058413  55.6430387  87.6675606  65.4871273
  55.9488726  87.0942974  64.7842312  56.2051535  88.4400558  65.4278421
  86.2842846  63.9932442  65.5325890  86.5167332  63.5509777  66.3490438
  85.5331039  64.5403576  65.7620239 107.6976204  76.4193201  82.6081467
 108.3820915  76.4281416  83.2772160 107.6847839  75.5164433  82.2905254
  16.0334301  16.0638988   9.0117383  15.6021237  15.9985816   9.8637605
  15.3745079  16.4566708   8.4392148  77.9991341  63.6830950  48.7896585
  77.6797485  63.5403728  47.8986740  77.3772717  63.2130718  49.3451738
  90.4691219  82.9433060  58.5597801  90.2285194  83.8669872  58.4880161
  91.1989689  82.9333210  59.1790199  20.4676652  61.2227917  86.1138630
  21.4075065  61.2826729  85.9425545  20.4029417  60.7041836  86.9157887
  22.1709704  49.6038771  41.4257860  21.6126180  49.2182255  42.1008778
  21.9119406  50.5249453  41.3981152  91.2361622  64.9895477  53.6095905
  91.4980030  64.1452885  53.2423067  90.5402660  65.2977991  53.0291224
  52.6949263  24.2085052   6.6819942  52.7461910  24.4717717   5.7631391
  53.0963039  24.9331927   7.1615297  82.0245934  44.2975378  63.0831337
  81.8909264  43.4066725  63.4067392  81.5067101  44.8464727  63.6719561
  64.0615654  86.9967461  20.7139754  64.6650743  87.7285671  20.5856991
  64.4375706  86.2830639  20.1987004  55.3280926  97.9232025  78.9807940
  54.9575281  98.7303448  79.3377686  55.2806664  98.0371952  78.0315876
  93.8933086  80.1309490  65.9221935  93.4216118  79.6230793  65.2620363
  93.8280869  79.6059942  66.7199373  74.0051174  96.7511082  58.8313818
  73.3687162  97.2904778  58.3620167  74.7998428  97.2841263  58.8547850
  62.0188856  75.3579998  39.8088288  61.9526863  76.1240435  40.3789425
  61.3056469  74.7860575  40.0923777  81.3197803  57.3342466  59.1015816
  80.8476353  57.7632427  58.3879519  80.6318378  56.9800329  59.6650553
  63.2687044  79.9553680  40.0989294  63.0637407  79.7586489  39.1848612
  64.0408850  80.5193329  40.0552273  89.3400002  14.2099655   0.9168179
  88.9233208  13.5311711   0.3859271  89.0256119  15.0331271   0.5429225
  85.5740547  34.0950012  65.0480700  85.6336212  33.1523657  64.8927546
  85.4548454  34.1747451  65.9944630  73.1264210  91.8384171  88.5320568
  72.7615833  92.7212811  88.5927582  72.3609686  91.2658024  88.4828091
  49.2045355  37.4040103   7.6099330  50.0646067  37.0316124   7.4154443
  49.3958426  38.2498264   8.0151850  90.8537197  70.8826351  71.1926508
  89.9801922  70.8108759  71.5774012  90.8697510  70.2135038  70.5083704
 107.3993397  66.4765930  79.1301107 107.3798275  66.3379622  80.0770187
 108.3043671  66.7260027  78.9431620  32.3794341   7.3163235  53.5926008
  32.4982095   8.2210845  53.8816214  32.4790645   7.3537260  52.6413345
  89.9884415  16.8536377  49.7470665  89.2218208  17.3915684  49.5491791
  89.6271420  15.9988618  49.9816990 109.8375797  51.0061502  78.8941002
 110.7686424  50.7928753  78.8318396 109.4853210  50.3635550  79.5099068
  86.0760880  63.4702253  58.1305456  85.9393120  62.6483250  58.6017179
  85.1939106  63.7708664  57.9123211 106.0228062  61.0672855  26.6846132
 105.0675106  61.0400009  26.6308904 106.2810516  61.7164516  26.0302997
  50.1594114 102.4473286  88.9760876  49.4718266 103.0270004  89.3038750
  49.6987629 101.8214130  88.4172821  69.1235447  69.9436140  43.6971140
  68.2071972  69.7913456  43.9280987  69.1384888  69.9084330  42.7406788
  71.2617016  81.7404556  49.8682594  71.4560366  81.8584156  50.7980728
  72.1176195  81.6138649  49.4588614  92.7474785  56.1825275  51.7077589
  92.4558544  56.9568253  52.1890593  93.7005615  56.2652159  51.6758871
 104.9404812  47.0618439  52.1282339 104.2135143  47.1590328  52.7433062
 105.7247829  47.1104479  52.6747990  58.8958168  89.5873642  64.7904015
  59.2822266  88.8380337  65.2436352  59.5598459  90.2738953  64.8534775
  66.2131786  98.2374668  31.6819787  65.7712841  97.5010395  32.1046305
  65.5042696  98.7549591  31.3000345  69.6815205  80.3485680  37.0212197
  68.9412689  80.3571987  37.6280069  69.2951488  80.1220417  36.1752677
  89.4037819  70.7793427  50.3806734  88.6637402  70.4380226  49.8786116
  90.1608753  70.2959394  50.0499773  76.9031715  50.6944180  36.7269230
  77.6457548  50.8207941  37.3175406  76.2931633  51.3957024  36.9556618
  68.5379505  59.1115952  32.4409032  68.1758308  59.9155331  32.8134465
  68.7310839  59.3353128  31.5304732  33.0147505  79.8349524  54.7763586
  33.2118869  79.5892286  53.8724804  32.1669555  79.4283390  54.9556303
  86.3788605  63.5390234  87.1080112  87.0681953  63.4461212  86.4504242
  86.3357067  64.4799328  87.2784805  61.9477272  65.7607174  74.3306637
  62.7872705  66.0795307  73.9993668  62.1200275  64.8548889  74.5876026
  38.1262136  35.2418089  48.2962036  37.7286983  36.0651612  48.5795832
  38.6804938  34.9781656  49.0307093 109.5983219  73.5124683  28.8516068
 110.2283859  73.7921715  29.5156956 109.7397327  72.5693417  28.7694430
 109.6022034  64.2546654  45.1401854 109.8800278  63.6467266  44.4550133
 108.6464214  64.2031574  45.1329327  73.6662483  33.1702232   5.6315106
  73.6452913  33.5478330   4.7521904  73.7269402  33.9262438   6.2154484
  90.1298332  54.6049166  55.4781389  90.0503826  53.7478065  55.8968067
  90.8985996  54.5252895  54.9134302 102.6703835  79.7658300  55.7759142
 102.2351265  79.4040442  56.5478563 102.0369625  80.3840733  55.4115200
  99.3300533  56.4679241  52.2987747  99.5280838  56.4847517  53.2351160
  98.5397720  57.0008993  52.2114897  13.6707234  40.4047012  68.6480761
  13.5285711  40.4437113  69.5938587  13.0295324  41.0151482  68.2841253
 110.8154106  92.2084713  38.1992173 109.8936844  92.4665165  38.1910777
 110.8560753  91.4850140  38.8246727  28.7391114  89.9063015  16.3114786
  28.4244347  89.0148163  16.1616373  27.9510093  90.4481792  16.2726772
  73.0817699  74.0367317  79.8904991  73.3857775  74.1168880  78.9864063
  73.5613060  73.2850361  80.2386856  59.7995329 102.1315670  56.9636250
  60.0058603 103.0219650  57.2479677  58.8538074 102.1403408  56.8161011
  75.9155226  55.0353193  58.7522268  76.1493444  55.6086206  58.0222368
  76.0636139  55.5690479  59.5328856  87.8301430  99.0688229  52.9049826
  88.2747364  98.4005356  52.3834896  87.5842381  99.7427750  52.2713041
  96.0231686  82.3128128  48.8618469  95.8827496  82.8872013  49.6145630
  96.6260910  82.7985859  48.2990456 101.6845036  39.7337031  79.1590977
 101.9330215  40.6505489  79.2768860 102.0090580  39.2946744  79.9453259
  78.1849480  82.5804710  67.5673389  77.9586792  83.4691620  67.2930098
  78.6922836  82.2262287  66.8370199  99.8817539  63.9771938  40.2914238
  99.6981907  64.8727942  40.0078058 100.1625347  64.0671444  41.2020874
  84.8623753  88.7076092  77.0348835  84.9083805  89.6636677  77.0265293
  85.7412052  88.4277630  77.2909689  27.0380449  78.0510283  68.6100340
  26.8482399  77.1137810  68.5678959  27.4430871  78.2515526  67.7662563
  66.4483738  27.6382160  11.7339206  66.7364025  27.9540443  10.8774590
  65.5956697  28.0520916  11.8674612 101.2372017 102.9851723  40.6783628
 101.3759232 102.1052170  41.0285997 100.9784031 103.5071850  41.4378071
  96.9380093 102.1862030  27.4933147  96.2733555 101.5361881  27.7212429
  97.7603054 101.6962624  27.4881268  87.6202011  79.3193340  67.2751379
  88.4246922  79.0077019  67.6897526  87.7309418  79.1076708  66.3482237
  90.0870132  90.3719902  70.1057863  90.0530624  89.5670509  69.5889187
  90.7152462  90.9270096  69.6437263  83.2236385  18.7823260  67.0296001
  82.8519058  18.1972885  66.3694620  84.0929508  19.0007985  66.6937590
  18.9091659  75.3755426  19.0693033  19.3975532  74.6118736  19.3767428
  19.4691658  75.7630968  18.3966720  17.9117465  26.7062235  58.4408092
  17.8866005  27.4861598  57.8864670  18.8419139  26.4910078  58.5093880
   0.9441133  91.5695763  52.4896908   0.8325084  92.4713993  52.1888781
   0.1495795  91.3839817  52.9901886 104.6342945 103.2317638  67.0218515
 104.9155045 103.9785194  66.4931583 105.4132938 102.6797390  67.0901251
  74.6063566  80.0041866  52.6554012  74.4519043  80.1628685  51.7241669
  73.9149237  80.4947090  53.0998516  44.3499756   0.8441415  77.7720594
  44.4947195   0.6884709  76.8387604  44.9841928   1.5229215  78.0028486
 108.3144379  65.2996063  50.4860449 108.0878448  65.6885624  51.3307953
 108.4414577  64.3702126  50.6766558   1.9345589  92.5342369  39.3396711
   2.5319898  93.0119514  39.9150872   1.5944113  93.1998730  38.7417936
  87.6917553  78.9990187  64.3483543  87.4334431  79.5259619  63.5921574
  88.3003712  78.3515787  63.9924765 110.8030510  74.6693182  20.5915117
 110.9194088  75.6127119  20.4787827 110.5930805  74.3474436  19.7148466
  91.8831539  88.8545322  46.0939932  92.5828362  89.1566563  45.5148602
  91.3417435  88.2906532  45.5415916  98.3314037  91.8733692  43.9075851
  98.9579582  92.5922680  43.9903259  98.5519600  91.2796402  44.6252728
 110.2653408  95.4480553  42.3316622 111.1849403  95.3215504  42.5652599
 109.8922920  95.9215450  43.0752134  49.1705751  84.4955063  51.3985205
  48.2978201  84.8179245  51.1736202  49.4498873  84.0024185  50.6271076
  90.2005672  69.7423124  68.5691929  90.2507114  70.6980133  68.5503435
  90.0966358  69.4897842  67.6517725  27.3852563  64.3324852  44.2228556
  26.7351389  64.3997192  44.9221849  26.9441271  63.8374138  43.5325384
  72.1958733  78.4350061  74.5901442  71.8502808  78.8688326  75.3702641
  72.3314428  79.1443205  73.9618731 102.3993683 102.8333569  35.3864098
 102.2373772 103.4436417  36.1058164 102.7251244 102.0409584  35.8132863
  75.9406137   9.6342969   7.8624535  75.9067535  10.3006601   8.5487813
  76.8585396   9.6157300   7.5917274   6.7250133  69.1618252  53.3939457
   7.5947285  69.2094135  52.9970026   6.5452313  70.0558758  53.6847830
   6.6444504  94.6377754  29.7701693   6.5292788  94.2126942  28.9203000
   7.2627115  95.3485775  29.6006250  95.7201672  90.0577259  39.9034071
  96.4721107  90.5476093  40.2363157  95.0497150  90.1598072  40.5789089
  97.5681973  92.7432823  58.6799049  97.9252625  91.9612694  58.2589722
  97.7084446  92.5969505  59.6153975  95.5464554  92.2116947  80.7516766
  95.4734230  91.2893677  80.5062962  95.0848579  92.6815987  80.0571632
 104.1780281  89.1488075  66.1904764 104.4997311  90.0502968  66.1978865
 104.3093586  88.8402557  67.0870113  92.1594238  78.6945820  34.9246192
  92.4228859  79.3240547  34.2533612  92.2296810  77.8423357  34.4945431
  85.1534557  96.4043140  43.6668682  85.7248783  96.5184975  44.4262552
  84.2742729  96.5852642  43.9993238  57.8647566  28.7774849  12.9434443
  57.0486832  28.3246183  12.7309275  58.3250904  28.8466907  12.1070611
  98.1056118  78.1520319  73.7668467  97.4717331  78.6519098  73.2525015
  98.8639736  78.0613661  73.1898642 103.4757805 102.2599506  64.8619175
 102.8190231 102.9470730  64.7489595 103.8801098 102.4518394  65.7080412
 103.2209206  86.9426918  36.9018960 102.8556538  86.1639881  36.4818573
 104.0074921  87.1420193  36.3941550  63.6282253  78.3063364  58.7486696
  63.3083391  78.8912535  59.4355297  62.8658295  77.7799177  58.5081100
  70.7038069  91.1679935  80.6094170  71.4982510  91.1051750  81.1396408
  70.9909153  90.9546185  79.7215652  34.1643977  79.1281557  69.6201658
  33.9753699  80.0385666  69.3928814  33.3123446  78.7563467  69.8481989
 105.4619312   9.7587901  67.0812225 106.0251904   9.6463752  66.3154984
 104.8606300   9.0147883  67.0475435  97.2737503  96.7670727  78.4247541
  96.5762997  96.4052868  77.8780222  97.5130749  97.5883675  77.9953098
  79.0692043  89.3082237  37.5880527  79.4691658  89.7060966  36.8147755
  79.6025181  89.6183109  38.3199334  43.8057613  90.7868195  53.6230373
  44.7454786  90.8919430  53.7717390  43.6016703  91.4129543  52.9283857
  13.5988533  14.9605143  86.9115734  13.7768066  15.2933109  86.0319042
  13.0042040  14.2233396  86.7730045   6.9810325  64.0072775  15.0682366
   7.7870208  64.5233154  15.0502837   6.4943093  64.3492985  15.8181393
  47.7530718  13.8073909  79.6484280  47.6826811  12.9214621  79.2928934
  47.8854656  14.3637037  78.8808250  74.9432707  63.3825445  64.3448973
  75.3059721  62.5441170  64.6307659  75.1904774  63.9981890  65.0348997
 106.4168167  84.6116924  72.8153896 106.4085007  85.5141544  72.4964428
 106.7732334  84.6741295  73.7015629  64.8444748  81.6169643  71.7508221
  63.9915848  81.1929417  71.8457603  64.8267555  82.3349571  72.3836040
  95.2002048  79.2461967  55.4318857  95.2062225  80.1162434  55.0328779
  94.4833374  79.2781782  56.0653782  66.0025597  76.8842220  31.7534852
  65.6192732  76.3540363  32.4522161  66.0673380  76.2873268  31.0079956
  83.9373970  67.3719835  78.2695389  83.4704781  68.1588364  77.9883242
  83.7488937  66.7256021  77.5891781  62.1008730  92.1556664  84.0572929
  62.2860622  93.0827522  83.9074612  61.3461494  91.9688892  83.4989548
  87.9227924  51.4277411  32.7049541  88.4085941  50.9579563  32.0270610
  88.3288479  51.1505413  33.5262418 108.9875031  38.4481454  91.1155224
 109.5482445  38.8551331  91.7759418 108.0994987  38.5549784  91.4565182
  85.6504250  80.2864742  58.4384823  85.0757694  80.7901955  59.0149164
  86.5331554  80.5793571  58.6648321  57.0775127  69.2766953  76.6964960
  56.2352896  68.8375711  76.8150806  57.5185633  69.1808081  77.5406027
  22.2735596   8.6260414  27.6284027  22.8154302   8.5743314  28.4157634
  21.3741279   8.6203235  27.9558516  95.4314709   1.5207708  30.2197766
  95.8977795   0.7472610  30.5367374  95.9945297   2.2559237  30.4621553
  78.6542130  78.6647892  79.7321129  79.0356588  78.7788105  78.8616371
  78.1148529  77.8776836  79.6560383   7.4372178  82.2415161  53.0283308
   8.0826652  81.5700054  53.2490349   6.6058964  81.8878174  53.3446217
  84.7398758  91.5171337  34.8566580  84.8855686  91.4513206  35.8004117
  85.5570316  91.8779755  34.5127416  25.4739714   0.1600164  50.9471464
  26.0707450   0.8846641  51.1341715  25.9458971  -0.6201740  51.2383842
  96.1366844  93.7244129  35.5630660  95.7566929  94.5384598  35.2326751
  95.3838253  93.2083511  35.8513570  91.2547016  11.1941791  61.7328882
  91.8957806  10.5083013  61.5462637  90.5417061  11.0299468  61.1157179
  67.3795652  70.7847261   7.8714448  67.4643946  70.6968307   6.9220704
  67.6865721  71.6719103   8.0582243  93.6187840  65.4859495  54.7751808
  92.7573872  65.4817963  54.3578005  93.9655399  66.3607931  54.6001196
  76.7124414  76.5184212   9.4552296  77.4717665  75.9456062   9.5626456
  76.0240316  75.9434271   9.1210085  81.7844582  97.6642609  63.9898062
  81.5821552  97.3552036  63.1067514  81.8061352  96.8693829  64.5226574
  74.6624041  83.5803509  76.3921595  73.7344599  83.5054588  76.6147375
  75.0779343  82.8485584  76.8482828  40.8749390  31.7754889  66.1298275
  40.5611897  30.9047985  66.3741446  41.8257093  31.7236638  66.2277269
  77.5247717  66.1950302  68.9310694  78.4541368  65.9667730  68.9109325
  77.4997854  67.1194696  68.6840534  68.4173727  72.7895498  65.2529812
  68.7104321  72.8641129  66.1611605  68.8477564  71.9993401  64.9265385
  99.5183754  73.4837675  81.2440872  99.8428059  72.7089119  80.7852077
 100.0116253  73.5004616  82.0642376  78.1039762  59.9878311  19.6744764
  77.1577168  59.9778748  19.8184264  78.4362507  60.6219053  20.3099132
  87.0900536  75.2315426  41.8875074  86.6649628  74.7281504  41.1931562
  88.0215645  75.2013493  41.6692924   8.9493918 104.6641254  54.5369816
   9.5733160 104.5684052  53.8174057   8.8226599 105.6092644  54.6199799
  86.2145138  98.6173534  77.6527691  85.3527641  98.4292030  78.0245590
  86.0400009  98.8182163  76.7332983 110.1700783  98.1124687  49.3691683
 110.4909134  97.4765205  48.7297392 109.5043373  97.6372147  49.8663282
  85.1460552  88.4864712  47.5119209  84.8457718  89.2901993  47.9362869
  85.2701378  88.7317085  46.5950251  82.8750515  42.0160961  14.3805802
  82.5241470  41.1505365  14.1710460  83.5425186  42.1721125  13.7124634
  77.9965210  90.3138447  25.5351686  78.7267447  90.8543777  25.2337861
  78.3320761  89.4180012  25.5021620  66.2399769  98.6467838  81.4272308
  65.6770992  98.9277363  80.7057953  66.6619492  99.4511986  81.7290497
  94.4408703  77.3519754  78.9362288  95.1496029  77.3146248  79.5785189
  93.7202930  77.7792931  79.3992567   3.1889611  97.4246407  32.8871560
   2.5507420  97.3152542  32.1822143   2.6582631  97.5732899  33.6697769
 106.2544441  85.1258564  69.3310499 106.2991810  85.8582973  68.7164354
 107.0860481  85.1588154  69.8038816 106.7365932  71.3942814  31.4363813
 107.5563335  71.4200258  31.9299388 106.3255692  72.2410488  31.6103721
  96.9553661  85.5350113  86.1475468  97.5252247  85.6225300  85.3834438
  96.8003178  86.4347649  86.4350033  83.6181355  57.3951721  78.2666874
  83.1223202  57.2976875  77.4537325  83.7197304  58.3409739  78.3733225
  79.8630667  79.9173832  51.0200167  80.5847263  80.2496815  50.4861450
  79.8541784  80.4849720  51.7907238 105.7809258  90.5038452  53.6348391
 105.8323860  90.2715492  52.7076817 106.6844654  90.4489231  53.9460230
   1.6369647  68.1611061  36.6975927   1.1045985  67.9152822  37.4541569
   1.0817324  68.7601614  36.1985135  88.4543133  93.5478306  40.5386448
  87.9220390  93.8204193  41.2860441  88.8434124  94.3594837  40.2129793
  89.5846081  72.0712185  52.7626324  88.7864494  72.5953531  52.6959181
  89.5859337  71.5349054  51.9697905  90.2890205  94.9785328  23.1873941
  90.2297974  94.1315842  22.7453589  89.9376297  95.6043434  22.5540543
  73.4221506  98.4481049  68.9027023  73.0066729  99.1912556  68.4652758
  72.8497410  97.7057076  68.7092447  95.2273083  99.9575424  25.2166176
  94.5357132  99.3342972  24.9941373  95.7611847  99.5008850  25.8667517
  73.1870937  80.7350636  76.4340782  73.6097240  80.5419064  77.2709179
  72.4137926  81.2479305  76.6690397  99.1993332  92.8536129  73.7882137
  98.4869385  92.2850323  73.4958887  98.8018036  93.4109592  74.4572163
  78.4125853  77.4504423  39.4624114  79.1798353  77.9932976  39.6436977
  77.8833818  77.5104618  40.2577591 104.3290424 100.5406952  41.8781471
 103.5226536 100.3320408  41.4065123 104.1962051 101.4336395  42.1963167
  48.3908319  59.6383381  11.7139649  48.8260221  59.2013454  10.9819221
  49.0015030  59.5460558  12.4452639  59.2707539  63.7992191  53.5000229
  59.6069145  64.6484756  53.2136917  58.8310528  63.4430170  52.7279997
  92.3855782  98.8214493  66.2284565  91.7139435  98.5513783  66.8547153
  93.0241776  99.3025589  66.7547226  15.1955974  99.2267323  45.1647472
  14.3899214  99.5957756  44.8029137  15.6298435  98.8189316  44.4155073
  60.0721741  80.7387733  52.3866653  59.3860531  81.2723446  52.7876425
  60.6000948  81.3625431  51.8882227  77.4959993  87.3964691  57.6914692
  77.1220112  86.9114113  56.9558859  77.8811026  86.7226219  58.2516956
  41.3450575  61.1856365   3.7449715  40.7913256  61.8462753   3.3288357
  42.1231651  61.6674423   4.0253967  76.3677263  80.3604698  61.4309645
  76.1683035  80.8741760  62.2136307  76.6813612  79.5215082  61.7686176
 108.7545681  55.4102707  78.1077623 108.7821102  56.0794115  78.7916660
 109.0410137  54.6085978  78.5453749  85.0979710  91.7999458  41.2585592
  84.6079159  90.9804440  41.1914396  85.9373283  91.6121769  40.8384991
  68.7997437  80.3146839  70.8110094  69.6720982  80.3854752  70.4234314
  68.2754517  80.9630108  70.3408718  70.5373335 100.3694344  50.4249382
  70.1507425 100.9279060  51.0993910  70.1427698 100.6730843  49.6074152
  85.3818989  63.1434631  38.4823942  85.2883053  63.7587118  39.2096782
  84.4878101  62.8592110  38.2925653   5.6448287  63.8499308  80.3005505
   5.9188575  64.3381596  81.0769367   6.1395264  63.0316925  80.3452015
  78.0283499  64.4774771  54.2034769  78.8768578  64.3206882  53.7891293
  78.0475807  65.4032850  54.4458437  20.3529453   1.5469153  87.2510910
  19.7252655   0.9087844  87.5902653  21.1671710   1.0532695  87.1532059
   3.1734341  73.3201790  48.0731058   3.9387450  72.7750587  47.8904295
   2.6601091  72.8101158  48.6996555  48.9889240  92.8901196  60.1358891
  49.1238880  93.7027645  60.6233644  48.0456924  92.7349186  60.1854563
  76.7723036  68.2742643  44.1052532  76.7283821  68.1395817  43.1585932
  76.5805387  67.4140406  44.4787121  51.1740828  82.6327419  55.5073071
  51.7862797  83.0867386  54.9282217  51.6361904  82.5709438  56.3432884
  78.3328724  94.7050667  79.6607304  79.0882111  94.5266438  80.2209663
  78.5289288  94.2494583  78.8420630  84.0424442  90.5790424  37.6609039
  83.4793186  90.1424789  38.3000708  84.7698593  90.9239769  38.1786966
  12.9757845  62.7109861  81.0759163  12.3408341  62.8704691  81.7742157
  13.4664440  63.5299444  81.0067081 106.1174774   4.9770305  64.7299194
 106.1321068   4.7472712  65.6590223 105.2752018   4.6487257  64.4152403
  19.8101783  91.2250900  73.2868433  20.4847121  90.7424355  72.8090572
  20.1762152  91.3440800  74.1632509  76.3081264  65.8868504  45.1439095
  77.2476673  66.0406399  45.2431107  76.1197090  65.1623917  45.7404709
   0.5069522   9.0809715  66.1729813   0.7091547   9.0152580  67.1062708
  -0.0097381   9.8830307  66.0957527  29.5302844   1.4416316  56.9550896
  28.7717032   2.0253900  56.9512320  29.4343710   0.9190017  56.1589146
  86.2838078  80.7498074  45.0254536  85.4957771  81.1226273  45.4207134
  86.2411594  79.8178148  45.2394772  61.4465141  41.4266396  20.6667352
  61.1406231  41.8340206  19.8563647  61.9051361  42.1281099  21.1291623
  80.7779312  72.7359295   9.1670793  81.1423779  73.1203127   9.9643588
  81.4933491  72.7774000   8.5325003  86.6458225  79.4005585  48.4409380
  87.0561790  79.0308142  49.2226839  87.1281910  79.0124702  47.7109098
   3.8192785  81.6362095  51.1361647   3.8230485  82.2914982  51.8338823
   4.0996471  80.8278275  51.5652895  83.5043716  97.0287132  25.6985784
  83.5518169  96.1093330  25.9607530  82.9682922  97.0242786  24.9055862
  98.8033581  87.5660038  64.8664045  99.7224045  87.6980686  65.0991058
  98.3883286  88.4107113  65.0409269  98.5617924  66.8169403  48.7899876
  99.1254807  66.1183071  48.4577274  99.0633011  67.6190948  48.6441517
  95.0754452  90.7328415  60.6892109  94.6108055  91.5290642  60.9468269
  95.9902287  90.9070873  60.9106350  73.0046797  72.7114868  62.6690388
  72.0647526  72.5342464  62.7058029  73.1320333  73.4524965  63.2614183
  86.1823463  24.8115921   4.1988686  85.6009674  24.8936152   3.4428906
  86.6110420  23.9639831   4.0804851  72.0511866  79.2269278  35.8953094
  72.9145813  79.6355629  35.9568858  71.4451122  79.8996878  36.2056303
  43.2081890   1.3564239  57.5182629  43.7558508   0.5738205  57.5801706
  43.1673908   1.5466772  56.5810442  70.9347582  77.0668554  32.0399070
  70.0818777  77.4951077  31.9662309  71.0775137  76.9779396  32.9822159
  91.5971184  54.2834091  75.1636553  91.6024971  54.9419498  74.4690132
  90.6899738  54.2642879  75.4685402   4.3710485  39.0132642  88.4058571
   4.7221416  38.9957547  89.2961693   3.4268811  38.9033246  88.5185242
 111.0964108  69.2344761  62.7559662 110.6295586  69.7911644  62.1327591
 110.4104805  68.7102509  63.1693983  69.0737534  83.5601139  77.6645041
  69.0421581  84.0245342  78.5008955  69.0814400  84.2541313  77.0053244
  94.1428661 100.1548290  67.8115034  93.8955879 101.0228634  68.1302595
  94.9329185 100.3062725  67.2927475   9.9885064  66.5446949  76.7677498
   9.3290669  66.0107613  76.3247061  10.3988910  65.9479189  77.3935938
  48.8113928  41.9732714  14.2555487  49.2977190  41.7824078  13.4534943
  48.9950085  42.8957462  14.4332051  63.6989355  71.2061453  60.7935524
  64.4900322  70.6905842  60.9503937  63.8695717  72.0437145  61.2243557
  82.6983261  73.3507013  55.1644373  82.9786491  72.5066853  55.5184031
  82.2008801  73.1272030  54.3777800  18.7171531  29.4009709  57.5401163
  18.1947136  30.1777649  57.7398062  19.2072284  29.6378493  56.7527485
  86.9856071 100.0307560  36.8757296  86.4011002  99.3000793  36.6740108
  86.4748383 100.8118439  36.6630030   3.1057015  84.9879169  56.3114643
   3.0727679  84.3540859  57.0279884   4.0276527  85.2392864  56.2562418
  50.4814196   1.2422765  85.4382324  51.1673546   1.7562748  85.0121689
  49.8087311   1.1363529  84.7655487  86.6337776  93.9832401  66.2610292
  87.2752190  94.6896839  66.1853981  85.9018517  94.2645168  65.7120323
  38.7032747  38.7621427  19.3264902  38.7575507  39.6327376  18.9323485
  38.9495444  38.1640196  18.6209178  94.7920895  51.1072445  64.9172640
  94.9758720  51.4568806  64.0453625  94.1353703  51.7016172  65.2801323
  45.7760525  25.9186101  38.4629130  46.3587379  26.6531301  38.6557627
  46.1738539  25.4898596  37.7051783  43.6932373  47.1005583  17.3156106
  42.8942966  46.6010952  17.1469009  44.4024754  46.4748812  17.1681607
  54.6249580  14.9925065   7.6974469  54.5489216  14.8276377   8.6372709
  55.3562641  15.6052446   7.6201612   9.4248343  94.8858929  74.0780878
  10.0953186  94.5574570  74.6770954   8.7348372  94.2229748  74.1042089
  12.7812839  73.4812069  43.5253477  11.9504488  73.1349373  43.1997108
  12.8174675  73.1974411  44.4388056 101.1805916  80.5425835  60.3932333
 101.3124084  81.4906311  60.4003382 100.2428913  80.4299736  60.5490160
  63.3849382 103.3644390  16.4990246  63.2618380 103.3757687  15.5498409
  64.2147303 102.9048920  16.6274548 108.4178734  85.0213814  90.9997368
 107.9924107  84.8878193  90.1527596 108.1961441  84.2393017  91.5051270
  91.6601372  77.7269316  57.7493763  91.2658882  78.0860090  58.5442734
  92.0094776  78.4902382  57.2894144  76.4685583  46.5156507   1.0778345
  76.0947990  47.2051573   0.5290885  76.1723566  46.7271662   1.9631371
  84.2547321 102.5014782  63.8382196  84.0157986 101.6133404  63.5729694
  85.1380539 102.4149227  64.1966677  79.1606998  78.6361408  27.6646876
  78.3901930  79.1561031  27.4362326  78.8536263  77.7298403  27.6411295
  89.0407944  98.2457829  62.5050259  89.4282722  98.4631062  61.6571665
  88.5293770  97.4539280  62.3387337  26.8314910  60.5625963  43.1921959
  26.4596581  61.4416313  43.1196308  27.6248002  60.6804895  43.7146854
  76.4628172  68.9867878  54.5991850  76.2964296  68.3262444  53.9267063
  76.7410040  68.4842587  55.3648901 100.2832127  75.4620266  79.2047882
 100.1677895  74.9445915  80.0017643 100.5888844  76.3144732  79.5148468
 109.8189449  86.8902206  47.2198963 109.8601532  87.7748108  47.5832605
 110.7105541  86.7125130  46.9204426  38.5787654  22.8001618  63.3703804
  38.8312793  22.7743840  62.4474478  39.3432474  23.1629252  63.8178158
  13.7072372  89.3115044  16.0782230  12.9447615  89.8788166  15.9641159
  13.4245622  88.4602451  15.7440245   4.0114132  68.8425016  48.0290747
   3.1606066  68.4927654  47.7644157   4.5780373  68.0734444  48.0900621
  88.4302044   3.6593577  41.0293722  88.3841801   4.5579541  41.3559246
  89.3034077   3.5891494  40.6435871  87.3731041  98.8661480  26.3464665
  88.1822300  98.5016823  25.9877062  86.6755486  98.4079170  25.8777738
  25.3758240  57.1516562   5.0759894  25.1278925  58.0728054   5.1550269
  26.2824678  57.1730709   4.7697756  73.0944538  67.9030561  42.0771027
  73.6383486  67.1545172  42.3222494  72.7150106  67.6573086  41.2333822
  75.1079369  77.4970627  71.4368677  75.9301853  77.9641008  71.5852499
  74.7897625  77.2873688  72.3149490  64.1785479  29.1753769  11.6743815
  64.3389797  29.8730755  11.0389984  63.5508966  29.5525217  12.2908592
  72.2631741  86.4799786  36.2034440  72.7341366  86.0985088  35.4625583
  71.7664862  85.7499504  36.5730286  59.3576527  97.2052479  20.8473468
  59.7961617  96.9153881  21.6472983  59.6417999  96.5816689  20.1790380
   6.9955581  68.4115028  46.5791178   7.1300828  68.7398577  47.4681187
   7.4069625  67.5472260  46.5781975  92.7932739 101.7311859  73.0035782
  92.9630470 102.5239468  72.4947166  93.6547375 101.3290977  73.1151104
 108.2709312   0.7064908  76.8585873 108.3078003   0.7395680  77.8145075
 109.1618729   0.9144939  76.5771914  81.1995792  92.0287609  43.8916445
  81.5320492  92.5367355  43.1516123  81.6763973  92.3685265  44.6488953
 111.2747288  15.3984225  48.9849997 112.2255898  15.4851866  49.0525866
 110.9596348  16.2954736  48.8743401  91.6763592  63.9976311  68.4901285
  92.2224045  63.2523251  68.2399464  92.2956753  64.6474075  68.8224983
  86.2637520   7.0239866  73.9115524  85.6267357   7.4883705  74.4544935
  86.9998550   6.8531251  74.4990826  12.1654689  12.5744617  55.8628464
  11.5010393  12.3020077  56.4957237  12.9170406  12.8278565  56.3987207
  98.5072231  63.9591742  61.9911289  97.5998402  64.1782045  62.2030640
  98.4705448  63.6291981  61.0933542  95.2598820 106.2748185  79.8256826
  95.4709254 105.7927195  80.6252289  95.8444343 105.9070542  79.1629028
   5.3160894  93.8449478  39.0464091   5.1612145  94.7027779  39.4418621
   6.2646812  93.8050652  38.9246988 105.1743603 105.4999638  83.8105297
 105.2102184 106.4529133  83.8931274 106.0870457 105.2349186  83.6965561
 102.8274918  83.9087582  33.0031753 101.9433308  83.5422516  32.9909229
 103.2416630  83.5095882  33.7682629  95.7642555  76.2911558  58.1204653
  95.2141762  77.0718431  58.1850767  96.3013744  76.4403486  57.3423433
  86.9644165 102.7612400  74.4395304  86.6635323 103.0393028  75.3046179
  86.2439919 102.9874039  73.8512516 111.4462090  50.2332687  24.4013119
 111.8967819  50.0378036  23.5797238 112.0039654  49.8489809  25.0776720
  95.5299854  94.8210621  71.9769096  95.4295063  94.3314552  72.7932596
  95.8748150  94.1807842  71.3545132  79.6140051  83.4775352  57.1956062
  79.4306993  83.7950897  56.3114166  80.3794670  82.9120350  57.0931053
  59.4086647  41.3343239   5.1013476  59.7084332  41.2766647   6.0085660
  59.0631008  42.2231960   5.0193202  90.6021595  61.2946701  50.2070236
  90.8673096  62.1024370  49.7672033  90.6031513  60.6335974  49.5147657
  84.3257999  97.1078110  82.7876949  84.1832829  97.0931816  83.7341118
  83.5348797  96.7132759  82.4202538 108.0427265  82.4166679  72.0323992
 108.6180878  82.5553322  72.7847052 107.3495483  83.0683231  72.1376705
 107.3208237  33.7802267  79.8225164 107.8987694  34.4640470  80.1610279
 107.8870964  33.2383609  79.2730284  20.4685044  11.5558815  29.9167752
  19.7599721  11.7954588  30.5141139  20.3005147  12.0704556  29.1273284
  88.5272121  81.1461544  78.3362389  88.3189106  81.9867420  77.9284954
  87.9281807  81.0859394  79.0803957  77.0890474  96.0458279  59.1338158
  77.3721075  95.8312702  58.2449532  76.8463135  96.9707584  59.0911770
  35.2211332  17.2161281  33.5776114  34.8548150  17.1659231  32.6947045
  36.1656761  17.1272504  33.4504414  98.4591579  93.6668682  32.5395155
  98.5938454  92.9466152  33.1554079  99.0740108  93.4911156  31.8272710
 107.9097748 102.7601147  50.9973812 107.1684647 102.5118160  50.4450655
 108.2079124 101.9361877  51.3827181 101.5078449  89.0542412  56.7071199
 101.4749527  89.7006989  56.0019636 102.1250343  89.4213581  57.3400021
  52.9024601   8.3426660   6.3034147  53.4376574   7.5494552   6.2786174
  53.3936739   8.9456856   6.8613636  91.6367531 102.0218658  42.3243761
  91.5585899 101.5199280  43.1356621  91.7843533 102.9224491  42.6131868
 104.9953747  82.0015812  27.6688337 105.9259892  81.7826939  27.6211119
 104.5458603  81.1677170  27.5315619  34.9984193   7.6167738  79.4224262
  34.6579194   7.2654629  78.5997009  35.0394297   6.8600959  80.0072193
 110.7555199  45.7340384  31.1718988 110.0875473  46.1579132  31.7107534
 110.4428577  45.8422804  30.2737045 108.1039047  64.0090036  72.0368290
 108.7594414  63.8448620  72.7147388 108.1557560  64.9512815  71.8766546
   7.3642033  19.4316161  71.3299417   6.8736625  19.8054802  72.0619440
   7.8690892  20.1657510  70.9801340 100.5468464  95.1083279  62.9141045
 100.3455734  95.9625149  62.5319052 101.5014839  95.0485706  62.8776741
  89.3478775  49.5490503   3.3009276  90.2206326  49.1698360   3.4044889
  89.5062256  50.4160357   2.9274294  53.7829113  80.7530689   5.4753512
  53.2265902  79.9743986   5.4551429  54.1382647  80.7705498   6.3639730
  30.7685781  62.4140739  49.8642826  29.9696589  62.5433826  50.3753996
  31.2829065  61.7908096  50.3773499  85.0743316 105.6719341  78.8539362
  84.8445181 104.9072531  79.3818378  85.4504691 106.2908009  79.4798374
  64.5746326  53.0709553  13.7330568  65.1120710  53.3450842  12.9899251
  64.2274761  52.2169304  13.4754598  75.9257317  75.3137064  60.7058048
  75.5697441  75.0583458  59.8547459  75.1655293  75.6168890  61.2021971
  91.4080334 100.9731865  60.4698420  90.7630920 101.3004494  61.0968876
  91.6363430 100.1018906  60.7937813  40.8559847  20.9046555  40.0416946
  41.2720871  21.5648627  40.5959606  41.2593555  20.0787735  40.3089762
   1.3715536  94.1674137  73.9289951   0.5283815  93.9573765  73.5275364
   1.8850214  93.3643055  73.8418198   8.6595380 104.1045380  77.4696922
   7.9858452 104.7564983  77.6628733   8.1822127 103.2768822  77.4115372
   9.8082691  13.2265687  61.1822081   9.6418053  13.8323998  60.4600620
  10.3763175  13.7147081  61.7782545   5.5322319  77.3484755  25.2778268
   5.6105894  77.7539921  26.1413360   5.5057836  78.0860758  24.6683383
  76.6322708  60.5895329  81.6608143  76.7494917  60.7370710  82.5992775
  75.9656382  59.9047089  81.6074467  19.7162879  74.6694708  50.6597424
  19.3414247  75.0566196  51.4508343  20.2081490  73.9109230  50.9742355
  16.2363052  99.2327976  47.6293802  15.8033454  99.3351078  46.7818499
  16.4728701  98.3060646  47.6671696  75.8584690  78.5298061  64.5240402
  76.5422106  78.7155247  65.1676512  76.3358259  78.2828569  63.7319708
  99.0658760  99.0709114  82.5748253  98.2753277  99.3854141  83.0134201
  99.0505028  98.1226444  82.7043819  75.6340694  63.8177490  84.9272251
  74.9782991  63.4198666  85.4998398  75.3692007  64.7351885  84.8610020
  90.8690453  91.9910240  62.4700737  90.3367996  92.7860928  62.4985838
  90.9349251  91.7801666  61.5387154  85.9721279  61.9959068  54.5963049
  85.1922226  61.5326500  54.2907381  86.4148808  61.3684845  55.1677513
  21.4428973  86.4794827  52.6635838  21.2829828  86.9908237  53.4568024
  20.7556343  86.7563057  52.0575523  79.2611361  86.2540054  38.4509158
  79.3631315  86.4728928  39.3771529  79.1075706  87.0955467  38.0214334
   8.7898099  22.9875255  74.0591669   9.1661763  23.8483405  73.8759279
   7.8684109  23.0718446  73.8139200  43.3460045   4.9317998  28.3534741
  43.0651712   5.4373789  27.5907469  42.6594639   4.2753619  28.4717131
  81.3698292  77.9751444  22.9005098  81.9776154  77.9892349  23.6398506
  80.8753109  77.1632624  23.0124283 111.3507938  76.8580818  54.5179272
 110.4198933  77.0663977  54.4387865 111.7976665  77.6839113  54.3320942
  46.1995506   0.4144993  65.4096460  45.3045607   0.0973283  65.2886772
  46.2630844   1.1772649  64.8348570  60.2686596   1.8294275  58.6109304
  59.8029804   2.5694853  59.0004063  60.5593920   2.1515907  57.7577496
  34.6204472   5.7092619  33.4012508  33.9370608   6.0031557  34.0036106
  34.5262480   4.7569826  33.3783960   6.8831623  89.3194485  48.7193775
   6.1443162  89.5446968  49.2847109   7.5540066  88.9946842  49.3199825
  81.5219498  97.5005245  73.7200928  81.0836697  97.7430058  74.5357800
  82.1210003  98.2263184  73.5451508 107.6212215  98.6097050  67.7277565
 106.6761971  98.4779644  67.8040028 107.8002167  99.3789387  68.2685566
   8.1061715  82.9631901  61.1875200   7.8499049  82.8292370  62.0999956
   7.4018842  82.5606823  60.6793833  93.1542206  98.1584167  40.6276274
  92.4221611  97.9001904  40.0675917  93.9084816  97.6935387  40.2654028
  45.5442905  33.1386161   2.7943718  44.8865175  32.9938054   2.1142268
  46.3821363  33.0367637   2.3428485  58.0267048  68.2914019  65.3037357
  58.2911062  68.3418179  64.3851614  57.0943642  68.0768251  65.2731800
   0.6506455  83.7950039  75.6560135   0.4411867  84.0376759  74.7540855
  -0.1832426  83.5050106  76.0258341  87.4923515  98.5025406  67.8675413
  88.4251785  98.4023285  68.0573368  87.4206257  99.3705273  67.4704409
  47.8651047  73.4574175  69.3220711  48.1819534  74.3592548  69.2717981
  47.9372120  73.1279325  68.4262609   2.8356284   1.8237546  77.3538303
   2.9741365   0.9178251  77.0775366   3.3879459   2.3402503  76.7669678
 109.4130802 104.6675682  44.3612576 110.3593254 104.7661018  44.4667816
 109.3136501 104.1545582  43.5592842  67.3117256  60.2942801  15.7523823
  66.4574718  59.8722982  15.6606519  67.1463680  61.2157154  15.5527556
  73.6302519 100.7623863  52.0053720  72.8210306 100.3582573  52.3185444
  73.9672232 101.2415600  52.7623844  32.5455642   1.2595789  56.3483000
  33.0133772   1.8163225  55.7258701  31.6204548   1.3983859  56.1454821
  28.7985611  17.2146451  42.2725010  29.1050911  17.6769400  41.4924049
  29.2108512  17.6768553  43.0023050 101.5997219  89.3526268  71.2377596
 100.9399986  88.7443924  70.9045124 101.1845303  90.2129745  71.1774015
  85.0473976  84.3415546  85.5859566  85.6490993  83.8057899  85.0691032
  84.7139931  83.7468624  86.2578392  25.3044701  99.0708828  69.5558214
  25.6897521  98.5862923  70.2858639  25.9407401  98.9810658  68.8463688
  25.0320339 100.3863621  44.6777058  24.6610641  99.8987389  45.4131222
  24.4154477 100.2428246  43.9597607  14.9687791  60.3263903  50.2071428
  14.0394092  60.5530787  50.2405643  15.2262521  60.5040121  49.3024921
  96.6301155  65.9618807  79.5894337  96.9587421  66.0806704  78.6982965
  96.3040161  66.8257666  79.8415995  84.8451710  93.6027241  58.7897301
  84.3568802  94.2177010  58.2423592  84.3393612  93.5501194  59.6006727
  87.2149563  71.0796213  88.5471535  87.2072315  70.5268621  87.7657223
  86.3843822  71.5541887  88.5130501  63.9108229 100.9200382  45.5850887
  64.6626759 100.6008244  46.0841465  63.9055729 100.3850174  44.7913933
 110.6157207  95.4049873  55.7394218 110.1481247  96.2393761  55.7766914
 109.9562931  94.7735310  55.4519367  31.9448614   8.0992818  28.1894541
  31.0886645   8.3516693  28.5350823  32.0406914   7.1791959  28.4354043
  76.3788080  97.9257774  38.3923960  75.8357763  97.6192474  39.1186094
  75.8120251  97.8575039  37.6240683  20.3154445   8.7389785  61.3511610
  20.7470417   9.2744160  62.0169401  20.5349684   9.1644734  60.5223083
  23.0099416   1.8091226  78.6242962  23.8877249   1.5571673  78.9110851
  22.5471520   2.0275126  79.4332218  26.6969943   5.6315058  63.8088655
  25.9719038   5.0662285  63.5425234  27.2457647   5.7012248  63.0276966
  91.2082767  78.7334633  73.4347010  91.8655777  78.6158991  74.1205311
  91.3664246  79.6162558  73.1001806  29.6646905 100.9641552  78.5984850
  29.0344357 101.4721775  78.0876732  29.1951156 100.1627159  78.8296127
  78.0803156  94.9029064  71.2442827  77.9597044  95.2715302  72.1193886
  77.5062180  95.4245472  70.6834459   6.4449203  63.8141489  73.0170059
   5.4920065  63.8099241  73.1073952   6.7260712  62.9859400  73.4059286
  94.1308498  75.5318260  49.0401459  94.7032833  75.8828449  49.7222996
  94.6709919  75.5335569  48.2499075   6.9245154  77.1742058  38.9893436
   7.8421354  77.1379662  39.2593288   6.4470237  76.7584896  39.7072625
  94.1038322  96.2602043  65.3912020  93.3034325  96.2669182  65.9161186
  94.4093990  97.1671486  65.4087591 107.3014545  79.3841648  47.4849319
 107.3980045  80.0564766  46.8104601 107.6321030  79.7963572  48.2830524
  49.4045305  28.8657975  64.1698360  49.3197155  28.0828261  64.7138882
  48.6100817  29.3689013  64.3486309 109.2065907  26.6493440  59.8489332
 109.9225235  27.0570755  60.3362083 108.5495090  26.4454794  60.5144453
 101.3329029  83.9813519  65.5458450 102.2724438  83.8400173  65.6620932
 101.2576675  84.9044323  65.3040171  95.6009293  80.6319141  77.2202349
  94.9689770  80.2101898  77.8024864  96.2784958  79.9699879  77.0824575
  72.8004360  95.5309200  25.1549172  73.3618450  95.7645035  25.8941650
  72.7433586  96.3324833  24.6348572  95.1484299  84.9107456  44.8207474
  95.5998135  84.1592121  44.4364357  94.2875290  84.9126911  44.4023228
   8.3875698  76.9155645  68.7678814   8.2683790  76.3096857  69.4992781
   8.0419248  77.7487040  69.0882540  88.0161381  88.3778572  54.5018482
  88.3417225  88.9578056  55.1902437  88.2159710  87.4963665  54.8169184
   8.5775024  97.1282673  46.4382792   9.5268589  97.1607971  46.3204002
   8.3356458  96.2362480  46.1892223  75.3410006  79.9643040  69.7955084
  76.2054348  79.6349144  70.0414419  74.7365427  79.5152092  70.3864193
  89.4392109  85.2855206  61.6191149  88.9088440  84.7438717  61.0346842
  90.3150749  85.2673340  61.2334108  96.4631271  69.2215490  48.9718437
  97.2709370  69.6810961  49.2009354  96.2938309  69.4728947  48.0638838
  66.6556787   4.9954197  52.3862123  67.5364304   4.9953938  52.0113707
  66.1033678   5.3700954  51.7000628  87.9605579  51.3242674  50.7714558
  87.5074673  51.9382048  50.1935053  87.2681713  50.7533884  51.1045170
   7.2742736  99.1411781  24.2988920   7.9787993  98.5159492  24.1286826
   7.2513938  99.6946049  23.5182357  46.7319202  75.1249266  63.5291338
  46.4618587  75.7687712  62.8743315  46.6814709  74.2845201  63.0737162
  16.2043679   3.6512536  87.2121048  17.1530199   3.6782181  87.0873642
  15.9706879   4.5441335  87.4658585 109.1309738 105.5991650  67.9321623
 109.6325302 105.8364105  67.1521711 109.7611904 105.1485157  68.4942722
 110.0487614  95.6858444  39.4974971 109.9974918  95.6999111  40.4532194
 109.1453934  95.8121681  39.2072964 109.0086269  89.5847797  48.1823778
 108.4733963  89.9771500  48.8721609 109.9104404  89.7154713  48.4754229
 110.1868725  82.8169537  49.1362810 110.2135849  82.8611946  48.1804800
 109.6278763  82.0633602  49.3256426  53.8494511  -0.1803714  48.1656599
  54.0967257   0.5182237  48.7715054  54.5273955  -0.1626902  47.4901533
 101.0094357  83.9369106  62.2863388 100.4497910  84.5345306  62.7822018
 101.3716888  83.3452797  62.9458666  84.3945122 102.2667980  59.9556446
  83.4873486 102.2072029  60.2551889  84.3300152 102.2979927  59.0011311
  15.7226670  42.3975372  43.5562181  15.0246191  42.9345751  43.9311218
  16.5311730  42.8014374  43.8715172 106.6771317 105.6927395  70.5786228
 106.4688015 104.7787857  70.3848886 106.6580677 106.1285400  69.7266006
  21.0951209  70.4200697  26.3599634  20.9257960  70.2875614  27.2927022
  21.1422610  69.5355844  25.9970713  84.5502758  88.1629181  62.2504377
  84.2396355  88.5911083  61.4526939  84.8912525  88.8773632  62.7885199
  60.1094818  95.1345444  78.1253195  60.8735323  95.7109070  78.1092596
  60.4528332  94.2897224  78.4162188  19.0904713 105.3606987  64.7165012
  18.3309865 105.8417130  64.3878126  19.7561347 106.0333443  64.8602724
   2.8845128  86.2232780  47.5448704   2.6427034  87.0665550  47.9278278
   3.8144374  86.1251736  47.7494335  53.4361362  25.8025479   9.7797555
  53.7412310  26.5983534   9.3440485  52.6116514  26.0573196  10.1939380
 108.6768055  44.7003222  79.0652561 108.4939671  43.7607527  79.0683842
 109.6088314  44.7622585  78.8561440  43.1954670   2.3428771  30.8901525
  42.4675941   2.8286389  31.2780499  42.9322338   2.2028039  29.9805808
   5.6206733  97.5724411  66.1199331   5.6483591  98.3981419  66.6033411
   5.3312176  96.9269753  66.7647743  70.8499289  26.7009878  49.6309948
  70.0167656  26.3061047  49.8881674  71.2809229  26.9116592  50.4592991
  55.4221296  52.2521400  10.9885693  56.1485434  52.8691864  11.0769820
  55.0758410  52.4140072  10.1110077  26.2047052   3.3440730  52.1207237
  27.0326304   3.4648988  52.5856686  25.6271005   4.0167931  52.4813461
  46.1575127  29.5610070  15.7578540  46.2532520  29.4156599  16.6990983
  46.1549664  28.6820555  15.3788137  53.2361031   4.2072663  71.0177946
  53.9743567   3.8571680  71.5164375  52.4708509   3.7560621  71.3742065
 101.1533737  54.3785858  63.7607479 101.4305401  54.8893785  63.0001545
 101.7294788  53.6141682  63.7587404   5.5953604  13.8561320  39.5424390
   6.4909250  13.5228956  39.5985699   5.2903551  13.8772058  40.4495001
   4.5826560  72.3630524  66.2443781   4.3500856  73.0901146  66.8218899
   5.4462242  72.5951910  65.9029150  87.8818130  86.2366104  45.1279736
  86.9995117  86.6045666  45.1768684  87.8552628  85.4732132  45.7048225
  23.2048082  72.4912596  24.4893861  22.9492855  73.1829357  23.8790393
  22.3764634  72.1063519  24.7756004   1.9975023  94.5742512  68.7180901
   1.4100337  95.2884769  68.4711266   2.4570058  94.8989773  69.4924593
  27.8806162  43.6201906  85.9822369  28.6804724  43.3282042  85.5449581
  27.3161483  43.9237738  85.2712917  31.6100359  77.7011490  17.2911000
  31.6721320  78.4817743  17.8415513  31.9981313  77.0038605  17.8196883
 107.9875565  81.1182213  49.3827868 107.9185772  80.8364582  50.2949715
 107.3739719  81.8493748  49.3108988  21.9444895 100.2064228  15.6879699
  22.7318335 100.6828117  15.9513688  21.2204695 100.7589340  15.9825194
  25.0967026 100.2396774  53.3934593  25.1240873 101.0667610  52.9124069
  25.8768797 100.2590084  53.9476967  46.8051481   2.1307492  60.2856684
  45.9668875   2.5925481  60.2686787  47.3877525   2.6722568  59.7531509
  19.4067788   4.9260852  60.2541161  18.7537992   4.3869174  59.8078537
  18.9122033   5.3925800  60.9279156 112.4069881  73.0806398  42.5959826
 112.6150894  72.1851730  42.3293972 111.4644527  73.0680752  42.7624178
   4.9182504 102.7144623  58.5684776   4.0924326 103.1971550  58.6040020
   4.8792705 102.1178055  59.3159485 107.1427727  82.2901440  80.1936150
 106.4153290  81.8293953  80.6116581 106.8279266  83.1877232  80.0865936
  98.7621689  98.7546730  46.2148619  98.7263012  98.7027931  47.1699810
  97.8491879  98.6820221  45.9365988  95.0854015  49.3880892  56.3696766
  95.1504517  50.0465012  57.0614100  94.1524410  49.1787100  56.3252640
  84.1521454  75.5776644  38.6423087  85.0634956  75.8672142  38.5995054
  83.9290810  75.3543997  37.7386355  55.1873255   9.2275709  27.3645186
  55.7754850   8.5474604  27.6927781  54.7630405   9.5761585  28.1485486
  25.1916194 101.9130039  86.4688873  25.1935029 101.4645863  85.6232262
  25.7997084 101.4082718  87.0089817  16.0639870  84.9619961  81.9886684
  15.1993704  85.2423573  82.2887802  15.9538996  84.0360165  81.7726421
  88.3488369  80.8311367  54.1271925  87.5712013  81.1201191  53.6496878
  89.0356064  80.7865810  53.4619188  33.9117241  14.2987871  29.7129321
  34.5507240  14.2152548  30.4206991  33.9600897  15.2190173  29.4539523
  11.0834253 101.5679836  26.0165286  11.0404110 100.8914280  25.3407669
  11.8037665 101.2940121  26.5842271  17.5374930 105.9362329  16.4985228
  16.6951411 105.5553802  16.7467713  17.3107569 106.6552732  15.9087741
  51.5887070  84.5254326  58.5436344  51.4374638  85.0104904  57.7324104
  50.8005762  83.9938259  58.6553240  26.3664436  68.1700802  58.6632395
  26.0783672  69.0369320  58.3772135  26.7513275  67.7753258  57.8807640
  23.3641696   4.2020929  47.7382946  24.1502643   3.9636716  48.2296610
  22.8681421   3.3863425  47.6694489  60.3950214  27.8218961  38.4534645
  61.2776232  27.9493427  38.1056142  59.8168421  28.0075312  37.7135420
  12.4410796   1.2708431  28.5178447  13.1873286   1.8672776  28.4577632
  12.6834774   0.5275404  27.9656005  23.2205439  95.8507061  14.3363833
  23.7110448  96.6547680  14.1656995  22.3845863  96.1512184  14.6928966
  15.1490092 105.2299213  71.6648674  14.7943437 104.3754101  71.9103432
  15.0860047 105.7537937  72.4635029  99.8705196  97.1391869  59.2519283
  99.2711353  96.6892433  58.6565018  99.3032742  97.5092220  59.9283409
  45.3898430   3.9147326  58.4450245  44.8896074   3.1008458  58.3851671
  45.5166864   4.1853368  57.5356770  42.4586868  18.6231124  61.5668154
  42.0661545  19.1751850  62.2431040  43.1184435  18.1080532  62.0312166
  35.6139636  26.9277740  82.1902657  35.2172184  27.6489854  82.6788235
  36.2387514  26.5389466  82.8023815  42.1075010  20.1756525  45.8809233
  42.5153971  19.3459427  45.6330585  42.6074505  20.4703522  46.6421270
  79.5080900  21.3317323  37.3040080  79.9220943  20.5436730  37.6558542
  79.7132587  22.0152473  37.9419279   3.5969830 103.8072681  41.5578032
   4.5398527 103.8910770  41.6999435   3.4754500 102.8970337  41.2877607
  17.6008224  37.6653862  37.8172135  17.8141081  38.2647991  37.1020603
  17.7274096  38.1850076  38.6110663  62.0502138  12.7347374   7.0452553
  62.3414135  12.5038505   7.9273701  62.3043156  11.9861591   6.5055382
   7.0838124  79.8146105  40.9877586   6.7739409  78.9597178  41.2867069
   7.2000426  80.3216362  41.7912817  19.9853861  87.6001358  33.0189586
  19.3188715  86.9226837  33.1331968  19.9123514  88.1428051  33.8040757
 110.3354454  79.8078537  37.5696588 109.6324158  79.8299122  38.2188916
 111.1135674  80.0916195  38.0494881  22.9867864   2.3999970  40.5493021
  23.1646490   3.1692427  41.0904646  22.5519300   2.7496475  39.7715640
  21.0445476  78.4855652  46.4899921  21.7700219  78.7428284  45.9210157
  20.4462194  78.0090094  45.9145498  17.0209384  88.0056858  37.0283389
  16.4055371  88.7308598  36.9204664  16.5479779  87.2397614  36.7029142
  47.4317741   6.5739232  25.4218125  47.0626640   7.0650792  26.1558104
  46.8158436   6.7178923  24.7033906  43.6573458  23.0586767  16.1125338
  44.4772911  23.3829045  15.7399797  43.7854624  23.1155872  17.0594120
  71.2558746   2.9430544  44.3176794  71.9276953   3.5253900  44.6723270
  70.7256269   2.6990688  45.0763226  46.2507057  99.9712753  63.2277203
  45.7322216  99.2186356  62.9432201  47.0745802  99.8899364  62.7472591
  31.5587926  94.6889400  39.6326065  31.2770009  95.5482006  39.3187690
  31.0741782  94.0655708  39.0915036  25.6326628  24.6184659  55.5425406
  26.2379193  25.2479053  55.9345865  25.4050756  25.0009155  54.6950912
  24.4948888  20.6589580  49.4919205  24.2272949  19.7431254  49.5685720
  25.3990316  20.6713915  49.8059368  45.9556532  74.6660471  48.8340998
  45.7249784  75.1731539  49.6124697  45.1145172  74.4452620  48.4341288
  95.9861851  89.4299412  50.9100866  96.4285946  89.2163277  51.7315912
  96.5714073  89.0976048  50.2294302  99.6224689  73.1082106  15.2883399
 100.3132248  73.1199598  14.6257997  98.8173294  73.2738209  14.7978830
  28.7342453   4.5716271  29.4451475  29.1202307   4.6489203  30.3176570
  27.8608227   4.9527997  29.5350099  59.4669437  10.1834559  51.0496759
  60.0989914   9.5194668  51.3251162  59.5542431  10.2166533  50.0970411
  68.2515287  14.0678203  16.5176022  68.0180788  14.0890455  17.4456549
  68.9677382  14.6976388  16.4363277  11.6780877  79.4235468  44.1974497
  11.9816947  80.1757622  44.7056103  12.2072506  78.6913872  44.5139360
  61.8007803  14.8559642  36.9105792  62.7198029  14.5992839  36.8347621
  61.6079998  14.7828174  37.8453064 107.8226566  99.1082478  38.8438606
 107.0968056  99.7288895  38.9083505 108.5413933  99.5305347  39.3143082
  31.4254141  11.1901557  41.6113329  31.4196682  11.6032612  40.7478857
  30.5763674  11.4166570  41.9908667  72.1064854  16.2151098  22.2624063
  72.6350212  16.9890201  22.4571991  72.4227095  15.9176266  21.4093304
  69.4694090   2.4384806  46.3988590  69.2885017   1.4997473  46.3510704
  68.8495398   2.8333804  45.7856321  67.0715523  13.8151193  82.5553131
  67.4504805  13.3877385  81.7872047  66.1977911  14.0850031  82.2725773
 104.2465973  91.8592262  21.8341279 104.0290928  92.4183941  21.0883045
 104.0295410  90.9741592  21.5412545  43.8426161   8.6084336  67.5676489
  43.3836031   7.7831972  67.4110556  43.7783146   8.7425828  68.5132170
   6.6176164 100.4192543  32.2079897   5.9458667 101.1010075  32.2221684
   7.4456543 100.8981228  32.2436404  41.1470604 104.3342781  71.9043636
  40.4876614 104.2368126  71.2173939  41.5491152 103.4684849  71.9750071
  96.4815903  87.5571346  44.7001076  96.0256004  86.7253304  44.8281336
  96.5506268  87.6486397  43.7497950  30.2422476  21.6553974  19.5786524
  29.5053840  21.3108325  19.0741360  29.8778486  21.8292856  20.4465270
   2.5164050  89.2110062  24.6236229   1.6273755  88.8655281  24.5430040
   2.9873997  88.8362789  23.8793302  42.0912933   4.3007043  44.6834183
  41.7066765   3.9057058  45.4658985  42.9168081   3.8322431  44.5597172
   4.8530409 105.3262901  62.3763657   5.6754637 104.8390770  62.3266554
   4.1846877 104.6547604  62.5126600  33.7516260  78.5307360  61.6727448
  33.0085540  77.9587793  61.4805365  34.1617012  78.6848164  60.8216715
  28.8547683 101.4985371  22.1080279  29.0078807 102.1566391  22.7860332
  28.0766988 101.8085861  21.6446543  12.0862591 105.4575825  68.4157896
  13.0208063 105.2572060  68.4677935  11.8532407 105.2785110  67.5048161
 100.8609772  65.3600740  89.2725563 100.6284523  65.5140638  88.3568859
 101.6059685  64.7603607  89.2328930  23.7997842   2.5691944  57.9477835
  24.2479968   3.1782809  58.5345984  24.4158816   1.8448454  57.8383589
  49.6847343  21.1172843  40.0897884  49.9618816  20.3019428  39.6718907
  50.2310228  21.7913580  39.6855330  14.7226405  76.9871521  65.5288029
  14.5129728  76.5416718  66.3496685  15.4548657  77.5629759  65.7490349
   8.8217562 103.6098766  19.1496730   9.0079492 102.9213047  18.5113692
   8.9557612 103.1909561  19.9998403  26.8186688  75.0450754  16.8189275
  26.8865490  74.1599035  16.4610243  27.7155018  75.2743387  17.0625639
  74.7090435  11.1541533  42.9608154  75.0184584  10.3884697  43.4447813
  74.5605803  10.8317077  42.0718718  26.4999676   7.5393420  42.0255423
  26.1078286   8.3888090  41.8233967  25.8989000   6.9007117  41.6420078
  23.1742327 106.0944672  43.5371637  22.5218527 105.3987393  43.6183786
  22.9054348 106.5853957  42.7606487  46.4130545   0.6777916  57.9683113
  46.6682386   1.2558448  58.6873102  45.7145023   0.1349544  58.3338022
  18.4547341  60.3964424  55.4233408  19.0609646  60.7887888  54.7950268
  18.6905766  60.7917309  56.2626028  41.4706755  20.9796166  53.1568146
  41.1666965  21.0641217  54.0605211  41.3515472  21.8520641  52.7814770
  17.0890760  88.5029411  19.5418525  16.8420601  87.8300953  18.9074290
  17.3415828  89.2554283  19.0068436  37.3498607  70.3335094  32.4193716
  38.1517673  70.4942608  31.9220424  37.0191216  71.2068605  32.6293612
  10.3819561  88.4455585  44.9013329  10.5926073  89.3439293  44.6468115
  10.0050890  88.5269451  45.7774496 108.4032059 103.1292915  66.6183186
 108.8945007 103.2350063  65.8036518 108.2007980 104.0233994  66.8936968
  34.6974587   0.5415281  19.0921056  34.2178798  -0.2490624  19.3394971
  35.3681397   0.2338779  18.4823751  50.2100754  10.1835096  53.8708878
  49.4075012  10.6491864  53.6358261  49.9686098   9.6611464  54.6357870
  32.6660895   0.1256190  46.0038567  33.2430887  -0.4200036  45.4694414
  32.0183897   0.4655541  45.3864717  54.1761684  12.7230036  24.9178004
  53.3608532  12.2838783  24.6756029  54.8069382  12.0118785  25.0303364
   9.6359950  76.6231441  44.6778488  10.2883053  76.7795038  45.3606892
   9.0134907  77.3441982  44.7716618 105.1117134  91.6758537  45.6391954
 105.1349258  91.8170738  44.6927595 106.0252666  91.7505550  45.9149885
  16.2550497 104.0327263  11.1963594  17.0258808 104.5885468  11.3108408
  15.5246425 104.5700359  11.5030062  31.9329047  99.9747086  54.9134398
  31.6677403  99.9845219  55.8331251  32.5866270 100.6705761  54.8452187
  38.8024187  87.6324368   9.6080071  39.5964313  87.2406769   9.9717474
  38.9334106  87.6031685   8.6602640  34.4025557 105.7963969  48.5736036
  34.0263121 106.6130662  48.9018154  34.5146887 105.2536726  49.3540573
  29.7584724  29.7581267  44.1387606  29.1815710  29.5213771  43.4125566
  29.6237755  30.6986642  44.2548370  54.2072344  33.4867644  46.7951298
  55.0928640  33.3230209  46.4709663  53.6413145  33.3168530  46.0420752
   7.3362380  42.0335245  85.1127720   6.6343325  41.4901161  84.7546291
   7.0832092  42.1817160  86.0239506 107.5188637  89.5217133  21.1881518
 107.8492069  89.9283218  21.9892621 106.9413662  90.1819515  20.8049989
  58.9542484   4.2766991  59.0171099  59.7519922   4.7596103  58.8011646
  58.5857201   4.7455472  59.7658443   1.8173124  84.3730545  34.4046569
   1.5970816  83.4425926  34.4491148   2.6253027  84.4524288  34.9116898
   1.8171771  85.4132080  12.5645161   1.9358139  85.7007122  11.6592562
   1.1768919  84.7038841  12.5085807   6.1477315  72.3907566  45.7380629
   5.3303468  72.1503687  45.3017950   6.2912500  73.3043861  45.4912567
  48.8896370  37.5036836  52.1682215  49.6823740  38.0295181  52.0619392
  48.8496923  36.9678020  51.3760948  33.3572268  85.2230930  40.2271795
  33.6468387  85.9824085  40.7329559  33.4216642  85.5044842  39.3145490
   9.8002017 105.5624676   5.9203839   9.0059334 106.0952377   5.9593588
   9.6441120 104.9521732   5.1996809  50.2596664 105.6514454  37.1066093
  50.9560013 106.2983036  36.9929099  49.5420599 106.1403275  37.5094318
  14.4951248 102.9257393  31.4414191  15.2193713 103.4493828  31.7841864
  13.7659252 103.5419178  31.3719773  44.3608952   9.0563530  78.2258463
  44.6982002   8.1750923  78.0651045  44.8157692   9.6068656  77.5884581
  66.3851929   4.3916443  34.2799234  66.3267231   4.5956275  33.3465409
  65.9233809   3.5583287  34.3723631  52.1701717   1.5449975  31.3781047
  51.2776566   1.3380933  31.6553044  52.1939039   2.5011903  31.3411665
  18.5389864 104.1188240  55.6227827  18.4226573 103.2631683  56.0357666
  19.1810012 103.9649582  54.9296951  59.7506809   0.5631955  30.9470391
  59.4437408  -0.2788526  30.6109214  58.9792633   0.9521317  31.3592029
  52.2625589  34.0983176  25.1889944  53.1627750  34.2073417  24.8824668
  52.3520422  33.8141632  26.0986543  56.8156672   7.4695665  28.3029366
  57.2949362   8.0967104  28.8444400  57.4599361   7.1623421  27.6651549
  54.8128939  42.7571440  55.8336830  55.0574493  41.9527912  56.2913275
  55.1079655  43.4607506  56.4117002  66.4433813   2.1013159  15.4022133
  66.1353016   2.1918616  14.5004821  66.0173607   1.3060975  15.7221603
   0.4821021  59.0067816  83.2654285   0.6843422  59.9069452  83.5204506
   1.0692431  58.4695101  83.7972546 102.4674606  62.9912090  79.8389339
 102.9534340  62.2056150  80.0897503 101.6748238  62.6583338  79.4180441
  47.9412358 106.1351810  26.3495445  47.2542088 105.5805606  25.9799194
  48.1940548 105.6946588  27.1608710   7.2855204 103.5911179  62.8089094
   7.9472864 104.1839981  62.4528360   7.7818251 102.9719543  63.3442163
  32.9343867   7.2865593  34.7536111  33.4696937   8.0048347  34.4163275
  32.2573519   7.7170771  35.2756357  89.2591000 103.0444813  44.2755270
  89.1738129 103.3954144  45.1619816  90.2014923 103.0439186  44.1077852
  34.2780137   5.2620023  57.4049950  33.4110570   5.6319129  57.5716829
  34.8582959   6.0219908  57.3611403  19.3219399  97.6033211  25.1689100
  18.7243474  98.1556988  25.6728864  20.1952076  97.9076385  25.4159474
  45.0557518  99.0513039  90.3306484  45.9854031  98.8377666  90.4105186
  45.0289011 100.0081253  90.3308582  24.9260545  97.1673775  64.9097872
  24.5266318  96.3016129  64.8252201  24.2220640  97.7782536  64.6919394
  49.2999458   1.5235683  31.6086173  48.7677956   2.0005387  30.9717917
  48.7528896   1.4796428  32.3928595  68.2481194  18.2831323  32.2858381
  68.3219528  17.9086804  31.4080191  67.4059010  17.9656589  32.6115942
  77.2440815  13.1480801  69.3768978  77.0406199  13.1148887  70.3116322
  77.3872995  12.2343302  69.1303587  49.2113018   3.8105196   5.2632284
  49.0716696   3.5521132   4.3522060  49.2141294   2.9854393   5.7484764
  94.4617653  21.7296576  46.1797905  93.7259579  21.9292116  45.6010008
  94.4538116  20.7756162  46.2570810 109.9648571  98.9168739  77.5524092
 109.6355915  98.2350636  78.1380320 109.4214725  98.8417816  76.7679834
  17.3006690  78.8994074  33.6795235  17.4790561  77.9922152  33.9273429
  16.3603771  78.9185810  33.5014367  22.4507213  27.8436613  76.2102938
  22.1062088  28.1498075  77.0492363  22.7774000  28.6351037  75.7823563
  41.4703465   9.6914685  41.6852713  41.6909170   8.9170516  42.2028208
  42.1534824  10.3262901  41.9010448  49.9446154   8.8550806  24.1123509
  50.1235390   8.4697777  24.9701166  50.7923985   8.8544410  23.6679459
  14.5285416  90.8684063  48.1321907  14.7771752  91.0090542  49.0457726
  13.6022270  91.1069584  48.0966139  41.5250731  23.7288380  53.4096622
  40.6369925  24.0859246  53.4150076  42.0435381  24.3832397  52.9414940
  67.5768471   1.5075979  50.8451319  67.4053574   2.1483597  50.1550245
  66.9451523   1.7205514  51.5320444  33.5656643  23.0206180  58.5794926
  33.2729769  23.8300991  58.9981890  32.8084755  22.4372673  58.6304379
  36.8434334   8.9738554  34.4388247  37.4538231   9.6689832  34.1929483
  37.4045682   8.2442594  34.7015953  25.3019118  13.8948834  59.1321564
  24.9793291  13.4324384  59.9056625  25.5646038  14.7551155  59.4596100
  37.8296900  93.7174034  55.6122541  38.2942176  94.5104027  55.8798456
  38.5173702  93.0590725  55.5126572  53.2070446 101.2019539  22.9389787
  52.3650169 101.4413738  22.5518179  53.5176229 102.0069313  23.3534551
  16.0605419  97.8149128  43.1486845  15.9321523  98.5882759  42.5994539
  16.8466675  97.3982525  42.7956486  51.0126877  27.4513316  10.7971394
  51.1431980  27.9868507  10.0145686  50.7383204  28.0739570  11.4704096
   1.1300567  96.0224247  17.6382971   1.6010335  95.8887768  18.4608233
   1.7872846  96.3801384  17.0413661  38.6866713  83.0516434  55.1173258
  38.9587617  82.3298454  55.6840801  38.0341816  82.6648617  54.5334721
  96.6381168  75.0753593  18.4509730  97.2990036  74.4067097  18.6308801
  97.1098042  75.7548475  17.9692757  31.6332078  98.5665131  30.5042219
  31.3829660  98.1737137  31.3404751  32.2048140  99.2959785  30.7437611
  38.7653422   4.9335644  14.5956600  38.5366082   4.0041727  14.6076858
  38.5866261   5.2357489  15.4861522  73.0070543  45.9652710  34.2238379
  72.4285221  45.7021570  33.5080838  72.4513531  45.9394884  35.0027871
  37.6651454  28.6238194  53.2279682  37.0551825  28.4841847  52.5036192
  37.1035743  28.7770915  53.9878178  32.5697803  27.3996592  28.9791274
  31.8264318  27.9271531  28.6868668  32.4097919  26.5328288  28.6059785
  25.8038545  75.5591011   7.7365524  26.4783430  76.2376261   7.7665001
  25.0664544  75.9739876   7.2889555  37.9354739  41.0970497  17.5947952
  38.6637378  41.5537119  17.1736968  37.3879385  40.7985687  16.8686104
  15.3005576  17.2816372  87.9775429  14.7955990  16.7185831  87.3908424
  16.1313379  17.4182534  87.5221634 108.6050224 103.5259914  37.8826571
 107.8960705 104.0086460  37.4576116 109.0866089 104.1913033  38.3742499
  60.0094271   0.8628489  78.7331009  60.7447100   0.4464294  78.2834530
  59.4357777   1.1621636  78.0277157  81.5635300  35.6687617  16.8964720
  81.0826397  36.4701629  16.6897500  81.5475464  35.6196499  17.8522778
  16.8944609 101.0544586  22.0209646  16.3152349 100.4208851  21.5975118
  17.7494156 100.9043217  21.6175508  50.1311064  22.7519727  34.8785162
  49.5537043  23.0268502  34.1662788  50.9894180  23.1019211  34.6396375
  48.5152817  17.4388850   9.2217052  49.3739843  17.2316897   8.8530242
  48.4828424  18.3954954   9.2303944  46.4558363   9.0738237  18.1718588
  45.8512545   8.4911025  18.6313653  47.3109579   8.6540687  18.2657206
  66.8085146  14.3715942  49.5191145  66.3163042  13.5721707  49.7058868
  67.7246857  14.1229129  49.6416521  65.1293278  14.0532959  64.1221285
  65.3872442  14.8816895  64.5264530  65.4057503  14.1359437  63.2094479
  30.9451699   3.0659324  44.6736479  30.2524519   3.3828402  45.2532530
  30.7153797   2.1525523  44.5028734  51.9584751   7.5793725  79.5197153
  51.6789246   7.5056529  80.4322147  51.7437744   6.7300105  79.1340733
  44.9945641  17.3531747  14.5533228  44.1654587  17.7111959  14.2360961
  44.7632599  16.4976799  14.9150634  60.7862425  95.4529953  41.9849968
  61.2231541  95.5024529  42.8352261  61.4658737  95.6861115  41.3525438
  61.0905123  17.5070143  42.3602629  61.6329336  16.7351878  42.5224257
  61.6498995  18.0891252  41.8459988   0.2790052 105.9798717  32.0248103
  -0.0828760 106.7682076  32.4295378   0.5810530 105.4492474  32.7619910
  41.4579010  17.3310709  34.8271656  41.7268229  18.1591034  35.2250028
  41.5218544  16.6922975  35.5371714  76.9431257   6.7006010  36.5782881
  76.3523531   6.4585519  35.8651018  77.8112888   6.7158258  36.1754322
  32.0775580  91.0222816  50.3476715  31.4336705  90.5609608  50.8850956
  31.5529442  91.5472221  49.7431374  66.3349962  24.7021484  55.3028488
  66.4649296  23.9173031  55.8351707  67.0999908  25.2467513  55.4883957
  82.3493385  10.2125299  16.7202318  83.0173779  10.0806737  17.3929656
  82.1518230   9.3313396  16.4028597  91.2930775  82.7451897  43.3827925
  90.6284237  83.3722687  43.6678267  91.9125271  82.7049637  44.1114235
  14.0212238  80.3401947  42.9374790  13.7683117  81.0101700  42.3023462
  13.3854616  79.6362448  42.8090334  83.0243206   7.1368420  37.2480583
  83.3217335   7.2886395  38.1451273  82.2650433   6.5615308  37.3415709
  68.0670118   4.0720469   2.4563187  68.8004827   4.0200853   1.8434972
  67.8028917   4.9918699   2.4363174   6.1326784  76.5552378  73.6957979
   6.5068650  77.1585798  74.3378258   6.8910897  76.1885452  73.2412863
  28.1789207 102.0907116  32.6063442  28.1609035 101.9790459  33.5568380
  27.3870325 102.5908661  32.4088907  23.7909770 104.2691517  40.4525518
  24.2446518 103.4274578  40.4083872  24.4798446 104.9199104  40.3175974
  16.4063859  92.5134754  13.8336647  17.2862887  92.7236176  13.5208666
  16.3368034  91.5641212  13.7330770 102.3690510 100.7531071  75.2771950
 103.1691456 100.2291775  75.3169775 102.6402187 101.6262817  75.5605030
 105.0234890  85.9544373  91.2010670 105.7676315  85.3529167  91.2266636
 105.4192257  86.8212986  91.1107159  14.4153214  18.5994446  40.4121876
  13.9213920  18.5966754  41.2320995  14.1010582  17.8280032  39.9406481
  54.3515682  24.8043633  53.3539438  54.7029018  24.7215867  52.4674082
  54.5738745  25.6973767  53.6172628   3.5212585  85.2998447  76.2895966
   2.5813115  85.4695415  76.2268591   3.7215969  84.7725773  75.5162382
  48.8780832  94.6939373  35.8036757  49.2639208  93.8255024  35.9184647
  49.6269798  95.2707672  35.6531715  46.9328928  18.1042743  51.3416100
  46.4891052  18.5971832  50.6514454  46.7695236  17.1866834  51.1235046
  41.2540388  10.7061064  61.9887114  41.6122389  11.5170145  62.3497534
  41.0961056  10.9041333  61.0656357  53.6312389   5.3625524  59.8327160
  53.3439064   5.3297937  58.9202452  54.3845510   5.9530610  59.8255539
  29.7120953  87.8980160  67.8044844  29.6321797  86.9448471  67.7682114
  29.9842405  88.1493092  66.9218636  68.6768723  20.6459737  21.7159700
  68.7853813  19.7282970  21.4663172  68.4979439  21.0988379  20.8918762
  29.9468994  14.6821570  41.7751074  29.3081856  13.9786375  41.8905878
  29.4625139  15.4816234  41.9811535  15.0094819  88.7023735  30.3382826
  14.8850465  88.9578438  31.2523293  14.5548737  89.3789482  29.8364782
  52.9777575  17.7177572  51.9847107  52.2694349  17.8860736  52.6061440
  52.6203394  17.0619702  51.3860178  49.0175009  11.0466635   5.5802703
  49.7544098  11.2861609   5.0182760  48.4095478  11.7821038   5.5044496
  89.9488640  86.8978596  40.6328297  89.5774937  86.6012764  39.8019528
  89.7245789  86.2065697  41.2557602  51.2217283  16.2201738  18.1139064
  51.8857527  15.6621802  17.7090037  50.3915787  15.7865369  17.9163039
 104.8382950  27.5357866  61.7262125 105.5911255  26.9628334  61.8718290
 104.3011856  27.4297595  62.5113964 110.9941673  94.1696548  34.1795158
 110.8642578  93.8406086  35.0689459 111.8624401  93.8523674  33.9311886
  53.4992599  20.9789252  34.8260069  52.8817558  20.3210664  34.5064092
  53.3133125  21.0469985  35.7625008  89.9919033  49.9278259  76.7130232
  89.9621964  50.7864523  77.1350622  90.4764175  50.0766945  75.9010458
  28.9996028  97.5439930  35.2167892  28.5751176  96.7527294  35.5483842
  29.9333739  97.3951721  35.3656483  52.7183914   3.0552503  51.7343426
  53.2288933   2.5961763  52.4013281  53.0751038   3.9434841  51.7289495
   9.2119271  90.1554203  46.9792700   9.3374765  90.9984016  46.5435553
   8.4549659  90.2908134  47.5492811  48.7682819 104.5094204  41.6864872
  49.5162153 105.0980663  41.7881012  48.9055777 104.0923214  40.8359528
  53.7627268  15.7311547  58.9751053  53.9982557  14.9735856  58.4395218
  53.6448050  15.3746510  59.8555756   5.3556597 102.3578358  25.7719827
   5.2055860 101.4237785  25.9177136   5.3411704 102.4570942  24.8200512
  18.1546128  77.4042034  24.4585323  17.9655635  77.7948093  23.6053514
  17.2967517  77.3026419  24.8708344  71.5585947  15.9975898  71.9476223
  72.5153732  16.0252285  71.9407320  71.3456011  15.0653636  71.9049788
  14.6585786 105.0337124  68.8909817  15.5630708 105.2176285  68.6374044
  14.7033966 104.8641872  69.8319864  53.0481911  20.8282328  38.0358791
  53.7520599  21.4729595  37.9642773  52.3115826  21.3175130  38.4022784
  97.7626610  82.6388645  13.5460413  98.2966328  83.4038258  13.7603831
  98.3967209  81.9660950  13.2978833  73.0236912  24.9777842  37.1847725
  72.1185923  24.6670365  37.1631527  73.3265877  24.7717977  38.0691099
  58.3265495   7.2786111  52.3471975  58.6700487   7.2925818  51.4538622
  59.0833712   7.4788547  52.8979731  79.3427515  31.3296914  26.4720345
  79.5105267  31.9049406  25.7255960  78.6132145  30.7779217  26.1899734
  20.6031036  84.0127087  32.8583860  19.9786222  83.3628082  33.1806993
  20.2690601  84.2586231  31.9957328 110.2673054 105.3911972  13.9822042
 109.8773766 104.8213673  13.3192754 109.5397663 105.6171799  14.5617247
  29.2364192  85.5210304  49.8552418  29.3771458  85.0391674  49.0402365
  29.7840500  85.0699711  50.4977942  30.4332447  79.5393419  67.4939251
  31.2776780  79.8325920  67.1516275  30.6342196  79.1942167  68.3638287
  50.5264854  41.2869406  30.4132676  50.3223753  40.8921623  29.5654941
  49.7126484  41.7139387  30.6807971  44.4049788  22.8983808  44.4388819
  44.5676517  22.6405382  45.3462315  44.1688728  23.8244987  44.4917154
  85.4538918 102.1513653  37.4755979  85.9219265 102.9455662  37.7333140
  84.5826149 102.4577522  37.2241306 100.8696938  12.1724594  17.1708739
 100.7750130  11.7525339  16.3159287 101.6627884  11.7852294  17.5413978
   6.1725938   8.3410406  91.9583893   6.3787806   8.4297681  91.0278797
   7.0259422   8.3099055  92.3908901  59.7548864  10.9647958  -0.2187553
  60.3564927  11.5149562   0.2828774  59.4991204  10.2722471   0.3905090
  49.5062494  30.6712389  39.1905260  49.5110798  29.8245049  39.6369028
  49.5780945  30.4525971  38.2614040  20.2902460  97.3632526  35.4299498
  20.0715256  98.2174015  35.0573707  21.0615087  97.5288391  35.9721351
  89.1856670  84.4151783  80.1765156  89.0393543  85.2741051  80.5728340
  88.3548260  83.9538670  80.2910900  90.7093430  96.6194916  65.3554392
  90.8419323  97.5433445  65.5679369  90.5660629  96.6095734  64.4090748
  78.1522417   3.3388957  61.1805487  77.2680759   3.5766104  61.4597893
  78.3292389   3.9104551  60.4334021  34.2746925   5.0427890  75.3555536
  35.2155733   4.8723996  75.3996229  34.1980100   5.8227217  74.8059559
  10.2719975  45.0414467  34.3181276  10.0302184  45.8927965  34.6827912
  10.9815359  45.2359486  33.7057900 102.9047108  93.7314129  57.5396490
 102.3716831  93.1538105  56.9932985 102.8895855  93.3233738  58.4053898
  86.6247749  17.4040115   7.9040241  86.7683029  17.8108871   8.7584752
  85.6772232  17.4456251   7.7750564  56.2879372  37.0079637  28.7420201
  55.7388210  37.6783204  28.3354163  56.9842672  36.8497276  28.1045938
  38.6147809  57.6390457  30.5068064  38.1600022  58.0228186  31.2565541
  39.5366216  57.8528881  30.6507254  81.7521477  13.5680151  14.1524160
  81.1880875  12.7971637  14.2145240  82.5891304  13.2275307  13.8365579
  27.9398561   5.6272650  81.8008518  27.1558094   5.7400548  82.3382378
  27.9164314   4.7086459  81.5328598  65.2880239  31.9217730  43.8763380
  64.6379995  31.8016982  44.5686388  65.3951120  31.0505366  43.4946156
  43.6746216  17.7853680  45.4804182  44.3137789  17.2970974  44.9614763
  43.9770460  17.6908171  46.3836527  74.3721056   3.2591075  32.9154348
  73.7051487   3.7416023  32.4269676  75.1976824   3.6768147  32.6701307
 104.6315765  90.1172066  89.3422699 104.0202427  90.8348370  89.1763783
 104.0734386  89.3782520  89.5844650  16.1306787  94.5576477  48.4422112
  15.2764213  94.2190552  48.1741953  16.7465258  94.1762829  47.8164959
  50.4384613  48.4104204  21.9452858  49.8928881  47.8102398  22.4535799
  50.1037455  49.2805147  22.1623707  39.0499949  33.5451126  29.1672468
  39.8495626  34.0712571  29.1574693  38.6731505  33.6658597  28.2956719
  83.0567360  33.3911061  33.1094193  82.5907516  34.0963435  32.6602793
  82.4166203  33.0357552  33.7260270  61.6674423  30.5570054  44.2960310
  60.7977867  30.9440470  44.3966770  61.5058374  29.7092056  43.8820839
  -0.2071599  96.8543816  80.3592396   0.3112999  97.5507259  79.9560785
  -0.0712201  96.0954857  79.7919464  40.1559353 103.9733791  28.1578803
  40.9784269 104.3503380  27.8453994  40.2536917 103.0321980  28.0134845
  33.2185459 105.5897713  67.6776934  32.8142023 105.3246689  68.5038042
  34.1594458 105.5593872  67.8509521  50.3582907  42.6556635  57.1222210
  50.5508518  42.9073334  56.2190008  51.0144758  43.1170511  57.6445007
  46.1385393  28.7525272  75.2021646  46.8006754  28.3040595  75.7281733
  45.3053379  28.5005450  75.6003046   9.4450665  72.9125309  84.1465378
   9.9333608  73.6772346  84.4515419   8.5636330  73.2439947  83.9749527
  28.3892345  95.0100136  42.8975153  27.5940537  94.5209503  42.6859999
  29.0273905  94.3378162  43.1365490  26.7306709  14.1028440  21.3010263
  27.4489355  14.1974461  21.9266295  27.1556926  14.1226614  20.4435921
  36.4142108  26.9525528  78.0489826  37.0753717  26.6521883  78.6725855
  35.6432724  27.1345162  78.5863638  17.1684134  97.4984264  34.0751290
  16.4369655  97.6367569  33.4733987  16.8307686  97.7693558  34.9288440
  30.2819014  93.3903980  52.0908737  29.8676801  92.7165413  51.5518236
  31.0108471  92.9406834  52.5182199  24.8264074  90.5145645   6.8083417
  24.2380905  89.9803352   6.2747627  25.5329609  89.9182034   7.0560640
  48.6048508  36.7091298  57.3242855  47.9742765  36.9907546  56.6614914
  49.2902756  36.2617755  56.8279982  66.9233942  16.7732716  39.5684171
  67.1256065  15.9063554  39.2165685  66.0297489  16.9488537  39.2738032
  63.3269882  15.9445930  46.1608791  62.7081728  15.2710080  46.4429855
  63.8795424  16.0982811  46.9272327  51.4758921   6.1238492  48.9392710
  51.5005112   6.0171258  47.9883575  52.3919058   6.2415439  49.1908693
  79.6428871   1.2690945  41.8502426  79.1612387   0.4433210  41.8986416
  79.9688101   1.3039133  40.9509134  72.7810335  24.1077209  71.6477919
  72.8025150  24.9884582  72.0220518  73.6924601  23.9207530  71.4228964
  57.6463842  22.0518184  23.6559892  57.8109503  22.5265455  22.8412604
  56.9610453  21.4222026  23.4320903   0.6086422 101.4389801  60.7089758
   0.0590984 102.1982861  60.9030914   0.6864634 101.4372635  59.7549486
  33.6892462  16.3508260  23.5526156  33.7317348  17.2107089  23.1342530
  34.5863795  16.1791146  23.8387966  48.7551546   3.5814381  58.9002514
  49.5675230   3.1197673  59.1079855  49.0327263   4.3268299  58.3677292
  28.2693553 105.8220291  16.4316750  27.8371429 105.0550938  16.0558641
  28.9975023 105.4623604  16.9382989  52.4379492   3.4520534  54.9399614
  52.9395437   2.7421379  54.5391464  52.9210424   3.6656198  55.7382393
  71.2956285  21.1104679  63.1211042  71.7179966  20.5529952  63.7746048
  71.2451744  21.9710898  63.5370541  38.6212850  94.2500305  34.6957898
  39.4277239  93.7345123  34.7073746  37.9319048  93.6121655  34.5110655
  78.6247587  17.5845122  58.9835882  79.0339470  17.4281287  59.8346710
  79.2426682  18.1507254  58.5211706  70.0408840  21.3908696  51.1995602
  70.1217794  20.9037304  50.3795671  70.9250307  21.3909578  51.5663242
  65.9732676  34.4412780  18.5185075  66.6026211  35.1374841  18.7067735
  66.4937019  33.6380243  18.5314524   6.9078529  89.6436214  19.1637874
   7.7462888  90.0665855  19.3491411   6.8447685  88.9424324  19.8123217
  76.7761660  15.2829015  42.2259760  76.0607719  14.7251523  41.9204330
  77.0976925  15.7150197  41.4346933  65.5166721  35.9709454  47.9484797
  66.4113426  36.1359358  48.2460976  65.2188635  35.2340603  48.4819031
  40.6609774  45.8349514  74.2805815  40.6089640  45.3108501  75.0798559
  41.3334084  45.4026985  73.7540627  50.2376604  26.4359188  61.1677170
  50.2390909  25.6371427  60.6402779  51.0022497  26.3484597  61.7369127
  46.6948032  21.1634707  78.5769224  45.8519077  20.7106113  78.6030102
  46.9382620  21.2695527  79.4965410  44.4833755   6.2358850  59.7686291
  44.7119141   6.0134119  60.6711292  44.5088911   5.4004121  59.3021870
  78.7311220  27.0845175  74.7555065  78.2294035  27.4358368  75.4910898
  78.0745506  26.6769862  74.1906500  14.0701318 101.4172745  39.4349217
  14.2755306 101.5651417  40.3580570  13.9792621 102.2958565  39.0660572
  24.9749804  35.9788060  51.1387587  24.9584579  36.8881154  50.8402348
  24.0809894  35.8076739  51.4349461  60.0911093  15.1097989  30.6461191
  59.7523165  15.5264568  31.4384890  60.9909201  14.8699903  30.8676171
  15.2855134  97.5340462  31.7933273  15.8344650  97.0760536  31.1568356
  15.1021576  98.3806992  31.3861632  33.9911246  38.0832267  54.0695667
  33.0897093  37.8542089  54.2959118  34.3072009  38.5836864  54.8218060
  74.2415714  25.1878524  68.2160139  73.6197996  24.4650292  68.3005953
  74.7792339  24.9539924  67.4594021  65.2657747  38.4663439   0.9698978
  65.0999212  37.6261783   0.5422914  65.3097248  39.0965462   0.2507703
  58.6580610  21.6307354  55.4799891  59.2035770  21.7359710  54.7005177
  59.2770433  21.6497469  56.2098742  67.8517675  15.9819365  45.7368469
  68.1099224  16.6733038  45.1272583  67.1809959  15.4864728  45.2669382
  90.3563118   9.7718877  17.2895896  89.5781517  10.3128338  17.4240077
  90.6889248   9.6072918  18.1719220  29.8848057 105.2705479  43.5863066
  29.9091768 106.2214088  43.6935759  30.7888532 105.0289917  43.3848572
  45.3753471   8.0966264  35.3148913  45.5236053   8.5233575  36.1587811
  44.6556950   8.5893553  34.9204898  92.3429585  29.3409729  43.8029861
  93.2183933  29.6990156  43.6558676  92.2409534  29.3411326  44.7547388
  23.6057711   9.8832101  13.6873341  23.1353569   9.9497062  12.8563583
  23.1111622   9.2371577  14.1915274  85.8946896   8.5801190  52.4471998
  85.3126907   9.3374360  52.3841238  85.3202724   7.8252631  52.3188448
  51.3974524  14.2624605  65.7339382  51.8286085  14.0925038  66.5714645
  50.4623938  14.2000914  65.9289169  21.8364406  10.6639612   4.3528533
  21.7822433   9.9465024   4.9841592  22.5931978  11.1765182   4.6371725
  75.1981878  29.7247863  51.8227816  75.9658957  29.1577721  51.8959475
  75.3860283  30.4589057  52.4076033  84.2370319  47.4658966  22.3712206
  83.9780998  47.4995947  21.4503217  84.9101543  46.7862463  22.4060416
  66.3777113  28.9022684  37.2366953  65.5701351  28.4183717  37.0637822
  66.5086031  28.8200474  38.1813335  85.6663895  42.6173306  19.0094781
  84.9479580  42.4582100  18.3973014  86.2113190  41.8327522  18.9484012
  77.8899670  22.4172282  48.3797789  78.4438133  21.8137670  48.8750792
  78.4802866  22.8123116  47.7381706  74.5400047  22.6674032   8.4499556
  75.2828550  23.2244015   8.6826849  73.8690519  22.8795052   9.0988505
  73.7164783  37.6157570  19.8571277  72.8918982  38.0638957  20.0454688
  74.3112564  37.9083538  20.5476761  84.8998165  29.4036031  48.2459068
  84.1765118  29.9078369  47.8733444  84.9315357  28.6051130  47.7189922
  48.2732201  30.9074211  28.9347935  48.0297565  29.9831033  28.9857244
  49.2232227  30.8987880  28.8179636  39.0953326  24.9788642  53.2056570
  38.6853290  24.1564655  52.9377174  38.7539554  25.6281638  52.5907564
  79.4940233  40.0788164  11.4250934  79.5346975  39.7284007  10.5352700
  78.5593510  40.1044512  11.6299260  73.9955235  34.2994070  25.5684972
  73.6367702  33.9938474  24.7353363  73.4850740  35.0819850  25.7764554
  72.9045391  30.3507066  39.7517633  73.0564165  30.1887965  38.8206625
  72.8634071  29.4780898  40.1430178 109.6649837  28.0525160  41.6335726
 110.2218914  27.3786211  42.0233774 108.8015175  27.6439166  41.5726709
  28.1138921  99.1608810  37.5124168  27.2641921  99.5714474  37.3521709
  28.2165384  98.5350704  36.7954373  68.4254313  26.3261008  29.5841384
  68.0226040  25.4577899  29.5830798  69.0415668  26.3034010  30.3163242
  54.7020912   9.4223791  51.1842251  55.0272655   9.0388966  50.3697109
  53.7490892   9.3828022  51.1038637  60.6719065  22.5723934  57.0070219
  60.6771660  23.4608150  56.6507816  61.1366844  22.6458311  57.8405809
  57.9775047  17.0571685  81.8810368  57.9337692  16.4873862  82.6489353
  57.1727371  16.8700039  81.3977623  43.7420082  16.7825031  71.5576744
  44.0140104  17.6822758  71.7383814  43.9989567  16.2930822  72.3391294
  16.8773842   6.9026184  24.1367769  16.8897057   7.7324212  23.6597991
  17.7742183   6.7951167  24.4535780  56.3754702  40.4061127  23.3742118
  55.6500626  40.7908916  22.8823137  57.1499681  40.5915356  22.8431702
  18.6631632  99.9723721  37.5907397  18.9255250 100.8902836  37.5212932
  18.0120325  99.8563671  36.8987823  44.1555882  27.3271012  35.4300737
  43.7501907  27.6373243  36.2397957  43.4177208  27.1291113  34.8533726
  33.1194830  78.7709761  38.3358669  33.9818215  78.6092234  37.9531932
  32.6419640  79.2481089  37.6572275  57.8159332  27.2121716  41.3515520
  57.2593927  26.4569998  41.5418386  57.7687693  27.7497315  42.1421432
  45.4364395  35.8220911  56.4194059  45.3421640  35.5970645  57.3449898
  46.1205912  35.2345347  56.0985470  75.4049778  30.0176764  46.6823864
  74.9285173  30.0390387  45.8524704  74.7557068  30.2724719  47.3379469
  77.9584455  33.0371213  36.8494415  78.0424881  33.7920594  36.2669992
  77.7939129  32.2990155  36.2626195  64.2588615   4.8581374  12.1504223
  64.4753695   4.8935640  13.0821407  65.1070595   4.8673373  11.7069077
   6.3712800 104.5961666  51.4594269   6.2262887 103.7412643  51.0540295
   6.2373382 104.4434929  52.3948288  92.6954937  32.3588347  24.7652292
  92.0406342  32.5903130  24.1065907  92.1836948  32.0667243  25.5195212
  44.1234541  19.1160476  85.5580807  43.7301350  18.5149193  84.9254799
  44.9787521  19.3300307  85.1853657  50.6885386  26.6785812  70.8080435
  51.3255310  26.2359762  70.2471733  51.2161922  27.2534847  71.3623905
  29.6066093  28.2831812  37.3916674  29.1195107  28.9630270  36.9260764
  30.5053520  28.3728290  37.0747185  50.2510405  17.0588028  46.7123413
  50.4257822  17.1888494  45.7802534  50.2300978  16.1081052  46.8217373
  14.5438635  87.3728466  35.5875039  15.1851141  87.3018456  34.8804045
  14.0042388  86.5869713  35.5012703  78.9923096   9.7814226  55.9503222
  78.3234835   9.6689093  56.6257811  79.7491884   9.2967314  56.2796211
  45.7076693  18.9879489  49.1851759  46.1218357  18.8047719  48.3418846
  45.4781866  19.9162614  49.1426897  66.3233662  20.9853816  23.2463408
  66.0303020  21.8674445  23.0176258  67.2251272  20.9425735  22.9281807
  52.2236967  45.6685781  76.4917803  52.5833464  46.4741707  76.1204338
  51.2795877  45.7408190  76.3515043  50.7334709  22.3139429  56.0438681
  50.8077431  22.7342105  56.9006634  51.1452007  22.9303360  55.4382515
  71.5187550  32.3625255  21.1058021  71.4807320  32.8491545  21.9291973
  71.7515230  33.0195713  20.4498005  46.1577559  25.3272200  35.2629423
  45.2083158  25.4067945  35.1709604  46.4618444  26.2253785  35.3936005
  60.1998997  16.8030143  46.4361191  60.1209974  16.5657496  47.3600864
  60.9859943  16.3456178  46.1376667  56.7139769  10.8115852  18.1979370
  56.4758730  11.4369357  17.5134850  57.6355028  10.6134570  18.0312979
  89.2740917   2.0539476  22.8147888  89.6575260   1.1860894  22.6881742
  89.5743370   2.5608331  22.0603657  89.5531273  25.0770617   1.6284248
  90.3204441  24.5145321   1.5234560  89.4344902  25.4830289   0.7697347
  32.8702283   5.1499766  40.6725359  32.9233170   5.5205405  41.5534973
  31.9601631   5.2871031  40.4094553  65.1196337  10.1259875  35.6886077
  65.0180244   9.4106835  35.0607181  64.7268152   9.7937542  36.4957929
  64.8847532  24.8928833  52.9789877  64.5931196  25.7808328  53.1856918
  65.3638458  24.6106696  53.7581253  74.8488045  13.7096810  65.8367300
  75.0683641  14.4581819  65.2819586  74.9102640  14.0475774  66.7301989
  58.3478642  26.5652370  20.2974987  59.1255713  27.1117067  20.1844811
  58.2029581  26.5475798  21.2435031  86.4734364   8.5836071  24.2873883
  86.7089844   7.7033824  23.9942169  86.7448044   9.1557586  23.5695910
  32.3727798  85.8382797  16.4205670  32.1869969  86.7753601  16.4805770
  33.3242035  85.7881641  16.3282883  54.0459394  38.4931254  38.2581854
  54.8096466  38.5890150  38.8272095  53.5165501  39.2708206  38.4347343
  62.3819923  21.3518786  46.8155766  62.3145676  20.7767010  46.0534382
  62.6941633  20.7822633  47.5186539  98.6434078  71.0646582  87.7847576
  98.3071327  71.1993790  86.8987560  99.5574284  70.8102846  87.6579285
  61.4617825  39.4513106  49.7611666  61.4021778  38.8518906  50.5050564
  60.9024048  40.1894617  50.0029516  43.8100052  25.4680324  46.3434458
  44.5394230  25.6171536  45.7418251  44.0135431  26.0101032  47.1056557
  47.0870256   9.7030157  69.5720863  46.6071892   9.9166054  68.7718534
  46.9592714  10.4641211  70.1383257  50.2785206  39.0497684  63.8307190
  50.0367928  38.8311005  62.9307270  51.2235165  39.1980124  63.7956238
  23.0809808   7.1143675  50.9020710  23.0701447   6.1576176  50.8747911
  22.2839403   7.3761606  50.4411745  62.5330639  14.2321122  62.8468847
  61.9562626  14.9664867  63.0571938  63.2305765  14.2805648  63.5006094
  21.4474058  27.9069543  37.7376199  21.0581517  28.3698773  36.9957209
  22.3169017  27.6504230  37.4303675  70.4936600  29.1938257  37.0278072
  71.3861895  28.8834023  36.8753052  70.3291130  29.8099494  36.3139796
 104.1038322  97.6589680  88.5406971 104.8523045  98.0545044  88.0939579
 104.2702484  97.8144741  89.4703960  34.1769862  30.0728440  55.5935097
  34.6741462  29.2896223  55.8293676  33.9622021  30.4817009  56.4319229
  73.6949635  60.3741121  10.8671618  74.4032145  60.9034252  11.2338185
  73.6010551  59.6433449  11.4782250 112.5106907  51.4627361  85.6419373
 111.8618870  51.4930725  84.9388313 112.1749973  52.0672226  86.3038540
  71.0372686   4.4341302  34.2419434  71.2159443   3.4941098  34.2160892
  71.3459682   4.7129872  35.1040173  53.6697054  12.2858572  55.4017019
  53.1338406  12.3069298  56.1945677  53.4874630  13.1190777  54.9672318
  29.6608520   7.1077448  51.0810518  30.1258397   6.3002038  51.2999010
  28.9896774   7.1888214  51.7586851  54.8351002   6.0790485  42.8998375
  55.3506327   5.5594963  43.5167027  54.6534014   6.8945664  43.3668995
  38.4907484  33.4266496  37.3791814  37.6930356  32.9362965  37.1805835
  39.1974545  32.7916074  37.2628999  86.8458271  40.6581926  23.4694624
  87.0757294  41.2883329  24.1523242  86.6361809  39.8547745  23.9456964
  89.8242760   3.6761299  11.7804456  89.4027042   2.9038113  12.1573186
  89.1860199   4.0150836  11.1527753  69.0726900  24.7460794  27.0140743
  68.9916039  25.6006336  27.4376249  68.4222221  24.1983008  27.4534607
  72.8482580  18.6466670  36.9723892  73.7087440  18.2846427  36.7608929
  72.3344088  18.5249925  36.1740232  38.3899117  22.2680259  55.6966352
  37.4695706  22.0244336  55.7959509  38.5159397  22.3475242  54.7511053
  74.8080206  32.1302843  18.6741102  74.0990400  32.4661374  18.1256759
  75.5569649  32.0617580  18.0819821  66.3279200  27.3617721  22.4522614
  66.7513132  27.7076435  21.6665483  66.9066525  27.6200676  23.1696081
 111.9408321  25.7128143  39.1133332 111.0956192  25.3262401  39.3422818
 111.7173386  26.5178108  38.6461449  49.0761709  25.7317162  15.4549885
  49.8438740  25.2788353  15.8039367  48.6349630  26.0851765  16.2274063
  62.1984339  27.5274515  87.9646301  61.7399168  27.8932691  88.7210464
  62.1518993  28.2153511  87.3006535  61.4168882 105.3914356  53.2502604
  62.1294689 105.6394482  53.8392830  61.1938095 104.4968700  53.5075760
  76.1977339  26.4215446  20.3311372  75.6626272  27.1841836  20.1114202
  75.9155703  25.7454634  19.7150767  46.9876337  21.8968463  57.7007341
  47.5204563  21.1283159  57.9049206  46.6233063  22.1665549  58.5437965
  49.9680519  53.9720631  20.2375412  50.0117540  54.5337772  19.4637203
  50.8656597  53.9511967  20.5693531  42.3194504  30.5453968  74.6852732
  41.5892506  30.2352524  75.2208614  42.4863195  29.8306561  74.0708351
  37.9250288  22.6453638  52.7751398  38.3696771  22.3962784  51.9649076
  37.2076535  22.0170259  52.8575754  57.0490932  25.1537132  47.0680141
  57.1550274  24.8246026  47.9605913  57.7733278  25.7687330  46.9519758
  92.3793125  23.4096098  65.0142431  91.9660473  23.5822558  65.8601952
  92.0685863  24.1155410  64.4473696  53.5367680  25.0559735  47.1797800
  52.7912426  25.6391692  47.0372772  54.0542364  25.4900908  47.8580141
  28.2374048  29.0651941  47.3191595  27.6766586  28.8620925  46.5704584
  28.7438965  29.8276353  47.0391989  83.5412598   8.3427685  81.0629463
  82.6682758   7.9719859  81.1919689  83.4476376   8.9170486  80.3028965
  58.8047457  14.0599120  27.8898501  58.4861183  14.6098876  28.6055565
  59.0790224  14.6805465  27.2147083  36.2086535  21.7244029  59.8249197
  35.2734876  21.5721774  59.9610376  36.2465048  22.3545861  59.1054296
  79.2005968  29.8635864  46.7052126  79.4901562  30.7649469  46.5640211
  79.8102188  29.5153141  47.3558283  71.6757393  16.7389655  51.1994505
  70.7190847  16.7265880  51.1695433  71.8904257  16.4936125  52.0994234
   2.0318481  31.3879466  51.2644720   2.5816751  30.6495667  51.5266085
   1.2824614  31.3514376  51.8588781  95.4117489  92.4256039  44.5809555
  95.7056522  92.6297569  45.4687500  96.2050724  92.4783897  44.0479565
  61.3286972  37.7410054  15.6761897  60.6278610  38.1779194  16.1600995
  61.3841105  36.8699455  16.0691428   5.4343349  91.4132881  49.7342300
   5.8058435  91.8457222  50.5031347   4.4936734  91.3813877  49.9084997
  89.3691254  51.1514282  30.2616906  88.5254860  50.7948828  29.9835181
  89.7974873  51.4159966  29.4476032  33.3099127 102.4134445  68.1575346
  33.6803126 102.9500675  67.4567699  32.3906469 102.3033619  67.9145050
  54.3272257   6.0312784  49.2723703  54.7457027   6.8911469  49.2307329
  55.0004864   5.4222995  48.9688921  65.7854080  24.9175954  26.3736796
  66.2964630  25.6854606  26.6294885  66.1549997  24.2011237  26.8897271
  35.2712178  16.6051233  10.0996554  34.8861051  16.4795887  10.9669268
  36.1212993  16.1679661  10.1495123  16.4288592  81.0795403  25.4961467
  16.6773438  80.5504131  26.2541103  17.2580004  81.2804222  25.0620914
  72.2590256  23.6217260   9.8129785  72.0201588  24.5380425   9.6732008
  72.1549559  23.4881091  10.7550764  69.1542530  28.6615872  69.3803644
  69.0150452  28.7825990  68.4411049  69.3915272  29.5315814  69.7013712
  44.8492098  13.2772934  49.8237562  44.5846081  12.9203093  48.9759493
  44.0283728  13.3890378  50.3033066  96.1175346  26.2663770  32.4675059
  96.1129189  27.2007847  32.2599268  96.5670681  25.8587885  31.7272234
  19.8260343  90.8036232  57.6238585  20.1846266  91.3539982  56.9276333
  20.5465651  90.7048798  58.2462072  75.0396347  14.5258355  68.5091209
  74.9272633  15.3967416  68.8900757  75.8474112  14.1950071  68.9019060
  77.0016813  19.4271207  30.6064224  76.1699057  19.7807455  30.2912545
  77.0234251  19.6577120  31.5351772  40.5805063  31.6069841  49.4341135
  39.8200417  31.7210865  50.0041151  40.5216503  32.3293018  48.8087940
  33.9128351  45.4002666  85.4785633  34.5105028  44.8507404  85.9855652
  33.0570698  45.2608967  85.8841133 106.8514442  54.7163057  88.4243965
 107.2285461  55.4612446  88.8924599 106.0366535  54.5283079  88.8902378
  15.4977930 102.5168228  44.4011450  16.1190927 101.7895985  44.3642807
  16.0472381 103.2987404  44.4554567  79.7106123  32.4075723  77.4572563
  79.9828196  33.2070637  77.9077530  80.4391003  31.8001771  77.5861025
  56.0166025  48.4728861  17.9508543  55.9506655  47.5491476  18.1928980
  56.6780996  48.8292408  18.5438669  67.1536398  23.4280396  28.4492421
  66.9944000  23.1334567  29.3459535  67.5532150  22.6734424  28.0166316
  38.8642669  50.7863951  85.6903458  38.1253791  51.0693264  86.2290764
  38.6646342  51.1201239  84.8157024  20.8588815  80.5248165  85.4715252
  20.4682422  80.4466343  86.3418865  21.5678167  81.1581993  85.5832005
  68.3943367  30.5410719  45.5906916  69.1912127  30.5817127  46.1194372
  67.8125858  31.1916280  45.9838486  71.3090706  49.1454649  21.8704343
  70.5590630  49.6777582  22.1357369  72.0601368  49.5627260  22.2923660
  76.1690998  26.7689204  49.7960234  76.3763475  27.6600409  49.5146227
  76.2871885  26.7841005  50.7457876  30.3085661  23.2161856  31.0320735
  30.1134348  23.7546611  31.7990136  29.6383166  23.4579277  30.3928852
  89.9120426  58.5951519  82.3642731  90.6191635  58.4304762  82.9880524
  90.3246021  59.0975332  81.6616821  85.0393200  36.6132522  27.1207547
  84.4935322  37.3983693  27.0766711  85.1173019  36.4280033  28.0566144
  69.3035126  25.3082800  63.7264109  70.2113676  25.0330400  63.8539934
  69.0746927  25.7623911  64.5373678  40.0540543  62.1903610  25.0289035
  40.7165670  61.5974236  24.6743107  39.2758632  62.0260048  24.4963288
  38.4338260  93.7264824  31.6387725  38.4280062  93.2715893  30.7965899
  39.1096210  94.3976879  31.5437865  51.2021828  31.7304373  28.8414836
  51.6137648  31.5591049  29.6885228  51.4159203  32.6439714  28.6517453
  17.9658413  15.0806987  12.6998246  18.2223272  14.6563721  11.8810499
  17.2031605  14.5849705  12.9978240  38.9024639   3.6030459  64.3534374
  38.3879161   2.8603563  64.6694803  39.8103356   3.3599323  64.5348167
  97.5179672  36.5896320  20.4746771  97.8256607  37.4922919  20.3924513
  98.3182526  36.0693431  20.5459476  68.4102392  26.2508512  55.6729317
  68.1547737  27.1428871  55.4379034  68.6295223  26.3017631  56.6032791
  49.0565920  27.1362972  25.4487586  48.2884598  26.6671515  25.7745004
  48.6975336  27.8210998  24.8845315  21.7686367  79.7609329  35.5274272
  21.4132881  80.0834274  36.3556528  21.5522599  78.8285351  35.5208349
  65.3800774  21.3405156  37.0842838  65.9549904  22.1051741  37.1159315
  64.8260736  21.4889455  36.3179398  45.2096367   3.3279148  52.0513773
  45.2719736   4.2774951  51.9482136  46.0024118   2.9892451  51.6353989
  75.0648499  96.2063503  26.2158537  75.6560087  96.4545631  26.9265962
  75.4057837  96.6666603  25.4489684  53.5180759  36.6029739  61.0040998
  52.9731750  37.2328043  60.5322647  53.5395098  35.8324099  60.4366446
  50.7405901  19.3296456  81.6681862  50.2626562  20.1582050  81.6321754
  50.2394629  18.7904727  82.2800636  45.8754492  25.7730889  44.1494131
  45.6820393  26.6826677  43.9224958  46.2049818  25.3884768  43.3371830
  64.5813036  42.7783918  43.0867052  64.3468332  42.1688557  43.7865067
  65.1538324  42.2723722  42.5101757  94.0701962  36.6964340  17.5947380
  94.5823956  35.8922529  17.6794255  94.6965027  37.3470068  17.2773612
  82.2295761  18.3550167  62.6866627  82.2261429  18.1238675  63.6155272
  82.7619076  19.1491365  62.6394272  33.3969641  24.4367576  24.3646264
  32.8344703  25.1691365  24.1127253  33.2317615  24.3185663  25.3000236
  66.0557461  27.1943855  49.6716022  65.4043484  26.4938307  49.6378946
  65.6216669  27.9023576  50.1476097  73.3541059  18.6802971  68.0902386
  73.7978888  18.0374146  68.6433983  72.4488878  18.3725524  68.0443525
  96.9422436  18.9339387  12.8955448  96.1974621  19.3098021  12.4262238
  97.2153950  18.1918180  12.3562181  30.5852818  38.4179163  16.4579284
  30.3335190  37.5344777  16.1888885  31.2940550  38.6572886  15.8607912
  -0.0493067  19.9981570  36.9828510  -0.0576132  20.8792663  37.3567605
   0.2734072  19.4405758  37.6908016  46.2790108  18.2298481  21.6288781
  45.6721497  18.1580818  20.8921289  47.1309471  17.9947734  21.2612152
  76.4288378   8.6518902  18.8403833  75.6015730   8.1847811  18.9573324
  76.7201567   8.4068769  17.9621279  96.3560963  23.9560318  39.2826772
  95.6486511  23.9664268  39.9273825  97.1201420  23.6485362  39.7704315
  87.5343895  17.1568811  48.4147453  87.8389645  17.6799190  47.6731920
  87.0050907  16.4648092  48.0183697  56.7732954  50.8163452  42.8248119
  55.8905077  50.7649231  43.1912565  56.6470051  51.1707878  41.9446707
  45.4305029  32.6960564  35.1444149  44.9806452  32.9320216  34.3331313
  46.1601973  33.3128929  35.2018023  64.9755859  23.6877418  14.7746146
  65.0981188  23.1520057  15.5583262  64.6136713  23.0840039  14.1259611
  32.3306584  25.6393886  39.1137290  32.6052451  24.9633765  39.7332764
  31.6265273  26.1055589  39.5644140  64.5720577  47.1335459  28.6783886
  64.0662003  46.6457748  28.0284548  64.5748234  46.5698767  29.4520164
  65.8625555  19.1294563  66.7361116  65.9096861  18.3980465  66.1204433
  65.2415991  18.8401413  67.4046564  51.0387135   2.8190431  63.3499289
  51.1775112   3.6909011  62.9800224  51.4761925   2.2269008  62.7381992
  90.2170372  28.4922743  45.4747057  90.1872063  29.2461848  44.8856688
  89.4514847  27.9702616  45.2345514  25.7271981  27.5501680  31.4979553
  25.8578706  27.9283094  30.6283784  25.4390216  28.2858920  32.0382309
  25.0548697  44.7354364  54.6746206  24.4946408  45.3780460  55.1098490
  25.3555655  45.1782703  53.8810778  75.0384808  13.2282686   1.7637582
  74.1965246  13.4860766   1.3884218  75.6863976  13.5237539   1.1241279
  80.9767246  26.7701507  32.5861526  80.6537056  27.0611882  31.7333984
  81.1271191  27.5796652  33.0743098  87.2873497  50.2817106  16.8051076
  87.9702854  50.5347109  17.4262500  87.7634048  49.8958063  16.0697925
  70.0579500  24.7610092  36.7334580  69.8968840  24.2981267  37.5556684
  69.2677975  25.2828765  36.5936351  70.1167679  23.3135033  24.8807502
  69.4319248  23.9077163  24.5739388  70.0845242  23.3831644  25.8348680
   9.0055180  10.3619707  43.6649561   9.7852343   9.8143387  43.5734463
   8.2729107   9.7522700  43.5767317  70.0222921  29.9843240  34.0055990
  70.8495951  29.8267031  33.5506725  70.1351881  30.8406377  34.4181657
  92.1711254   3.9843899  24.3372631  92.5263882   4.8375848  24.0880990
  91.2413406   4.1487354  24.4944453  67.1194315   6.5492815  61.1445761
  66.7127180   6.6840851  60.2886295  67.9773521   6.1742455  60.9457016
  73.9223242   9.8291922  54.2889547  73.0583334   9.4438750  54.1430712
  74.5210886   9.0823942  54.2868042  74.9840260  19.0596139  56.8706942
  75.6459856  19.7374463  56.7343712  75.2358103  18.6410594  57.6938868
  43.3684540   7.6484257  37.2453594  42.6516771   7.8535873  37.8456712
  43.9982843   8.3578217  37.3730350  86.6188049  27.0574069  31.3463688
  86.0595894  27.1610785  30.5764627  86.0327148  26.7217922  32.0246649
  50.2596474  16.5490651  14.9116278  50.7855654  17.2700381  15.2578056
  50.5783033  16.4281070  14.0171683  73.8205957   0.7048673  32.4063683
  74.6749973   0.3143054  32.2228026  74.0171623   1.6120616  32.6400185
  75.1848936  27.6471210  75.5006456  74.8475075  28.3951044  75.9935188
  75.8040285  28.0295992  74.8788595  86.9783497  94.1945648  80.6641197
  86.9727325  94.6376610  79.8156738  87.7029037  94.5993996  81.1409569
  70.1675463  16.8247926  54.4595289  71.0578537  16.9815135  54.1448545
  70.2628088  16.1310279  55.1120996  40.4814100  14.5558691  66.7933607
  41.1848354  13.9760435  67.0852995  40.1814651  14.9895895  67.5922060
  71.5610838  19.8740029  46.9669867  70.9360027  19.3025541  47.4130249
  71.9901657  20.3570843  47.6732159  75.8689117  12.0390928  38.6495090
  75.9423494  11.5979826  39.4958305  75.1297951  11.6095638  38.2188797
  45.4904222  34.1011715  48.7681532  45.4727697  34.8603725  49.3508482
  44.8138857  33.5185766  49.1132784  47.4678707  17.7141631  38.7867689
  48.3253956  18.1369019  38.8333702  47.6032448  16.8535233  39.1832566
  61.3734245   6.4474398  42.4006891  61.2567472   6.3051647  43.3400393
  60.5645418   6.8761116  42.1210814  64.6705151  16.5454936  61.6330147
  64.6815443  17.5000370  61.7034292  65.5417109  16.2739336  61.9219971
  86.1222744  28.5445070  21.3204694  86.1951256  29.2188430  20.6450462
  85.1992035  28.5576415  21.5734553  70.0552416  35.9688544  39.8348475
  69.5342445  36.0462451  39.0355945  70.8515787  35.5152035  39.5586634
  19.5776701 100.9051514  61.7435074  18.8811278 101.3755035  62.2015810
  19.5528042 100.0220585  62.1119738  13.0408299  11.1522853  70.1976395
  12.4018312  11.6697609  69.7076082  13.0762029  11.5685010  71.0588837
  91.0764122  14.0504777  76.1040831  91.0553074  13.6268497  76.9621754
  91.9519520  14.4331598  76.0473680  61.2424898  22.5627685  37.4013305
  61.0015202  21.6455817  37.5314665  60.8338308  23.0240202  38.1337738
  79.9388647  71.9873142   2.4747096  79.5481873  72.3548651   3.2674956
  80.3303432  72.7390671   2.0299178  65.0103712  31.8013573  51.5062141
  64.0876007  31.8272924  51.2531185  65.0397921  32.2507977  52.3508263
  43.0378580  21.0241413  37.9293633  42.5922394  20.9301257  38.7712741
  43.8193083  21.5398979  38.1282616  93.5527420  96.0419369  79.3642569
  93.2219410  95.1687813  79.1535282  93.0226135  96.3255882  80.1090622
  41.8233299  28.9428782  52.2015715  41.4565563  28.1727266  52.6358223
  41.4764929  29.6849656  52.6967955  46.5931129  15.3348851  50.7240105
  46.1181641  14.6871555  50.2033377  47.3030853  14.8397410  51.1326742
  20.5033755  93.9039040  15.1276183  19.9375081  93.2171440  15.4803050
  21.0429811  93.4578800  14.4748402  65.2889252  20.3275824  49.7841406
  65.6021023  20.8213019  49.0262508  64.3361187  20.3269815  49.6925306
  59.0918970  36.1881757  51.0137129  58.4290600  36.8674612  51.1379957
  59.5859718  36.4734101  50.2451038  99.6110153  11.3629699  52.3817587
  99.9335384  11.9098961  51.6654587  98.6581993  11.4389706  52.3308372
  17.5494087 104.5434761  43.7017536  17.4625242 105.3479099  44.2132044
  18.1295645 103.9892578  44.2237568  67.7108717  13.8273466  39.1986847
  67.9054737  12.9272938  39.4599652  68.4707022  14.0965044  38.6825037
  59.9481821  20.3407741  76.6236448  59.7022820  19.8868358  77.4296856
  60.1855755  21.2232018  76.9085932  83.4643650  85.0984383  13.5341287
  83.7992382  84.9267960  12.6539969  84.2463493  85.2709675  14.0584970
  31.9597507  26.0794234  67.7092648  32.0490551  26.9687533  67.3667002
  31.1449671  25.7555366  67.3252630  37.0088911  50.4448462  14.9510860
  37.1874285  50.1983309  15.8586025  36.7367601  49.6292257  14.5304441
  76.7235947  30.3954864  25.8120084  77.0219374  30.5666494  24.9187398
  76.4519453  29.4776964  25.8020711  43.0606318   9.6442246  15.7154632
  43.7606955  10.2940977  15.6537592  43.4985924   8.8057673  15.5691445
  41.3834763   6.7450619  59.0531588  42.0440245   7.3569506  59.3779755
  41.3075256   6.0860634  59.7432184  83.1831360  25.3898668  64.8441219
  82.9556179  25.4125738  65.7736158  82.3507977  25.5227733  64.3904877
  63.4870720  22.3309135  12.5196481  64.0432739  21.9506121  11.8397653
  62.6411295  21.8973279  12.4073327  59.4526911  23.0228662  44.0667820
  59.4048882  22.3926616  44.7856617  60.0387621  22.6150012  43.4292889
  72.1079779  29.6648145   8.7167996  72.6353645  29.5255160   9.5033705
  72.7389145  29.9373603   8.0505645  44.9083996  30.3467798  59.2511415
  45.3739357  31.1831379  59.2541170  44.5910263  30.2525115  58.3530235
  73.3672523  37.0749521  23.3093333  74.2543507  37.3073268  23.0349445
  73.3946085  36.1257076  23.4294200  75.4489756   6.1427957  54.8050165
  76.0193348   6.3709670  54.0709496  74.9667740   5.3729105  54.5033646
  62.9462099   5.1202196  46.2815428  63.2658768   4.4403359  46.8746710
  63.7213707   5.6430125  46.0764980  87.1384811  43.4624434  16.4287686
  86.7244339  44.3180466  16.5416789  87.6869202  43.3573008  17.2061920
  10.6817174  98.1198311  77.1299314  10.2186608  97.7843857  76.3622761
  10.5604172  99.0683556  77.0872784  72.2465038  24.0995145  53.8332605
  72.4822235  24.3294477  52.9344845  71.3053226  24.2663097  53.8841724
  72.9308367  10.8830571  19.5731878  72.3051929  10.6882405  20.2709317
  72.5844431  10.4264653  18.8065290 103.8751030  66.0660744  75.1444292
 103.5277557  66.1699343  76.0303164 104.6355343  65.4945326  75.2508068
  45.7354355  11.0254180   4.5151320  45.6627321  10.1004791   4.2796889
  46.0798883  11.4466631   3.7276453  31.6959071  47.4006319  38.2420993
  31.2279010  47.5470591  37.4200535  31.2425351  47.9543877  38.8777423
  64.5837927  12.7419555  35.0489259  64.6228123  11.7926943  35.1656032
  64.7297430  13.0972350  35.9256840  74.4690180  81.4263153   2.8724435
  73.6612415  81.6131878   3.3507809  75.1679993  81.6963291   3.4680545
  68.1244707  67.8726196  18.6390460  68.9547253  67.9347420  18.1667578
  67.9726362  66.9323063  18.7338722  79.2817211  53.7076378  50.9465647
  78.8396978  53.7807894  51.7924356  78.9024019  52.9259682  50.5449009
  74.3754673  60.2017260  54.1033936  73.7494755  60.6008244  54.7076130
  74.0352917  59.3195343  53.9542294  82.9390144  59.8346567  33.4144306
  83.6627960  59.6022892  33.9961410  83.3513451  60.3247070  32.7030444
  96.8595505  71.1283255  30.5807090  96.7799282  70.2098227  30.3233385
  97.7053738  71.4036751  30.2271461  75.5151606  61.1252737  51.8777990
  76.4165783  60.9454727  52.1449232  74.9818754  60.5660772  52.4427271
  73.0958796  80.8483505   7.7682024  73.9344692  81.2878513   7.6273286
  72.9977417  80.2712154   7.0108938  27.2893047   6.2473732  84.6763802
  27.3707747   6.9907647  84.0789127  26.4817810   5.8102459  84.4060898
  75.8540821  93.4823418  14.3325365  75.3735924  93.3560848  15.1507175
  76.6333103  93.9769745  14.5862710 106.5194607  51.7937326  46.1299944
 105.5624104  51.7777586  46.1238527 106.7435455  52.7242708  46.1192322
   1.2051103  47.8917170  66.0325384   1.7523138  48.4752941  65.5069542
   0.4058418  47.7839947  65.5169821  64.9457979  86.5865707  47.9353857
  64.9693775  85.7029533  47.5680923  64.7281408  86.4565468  48.8583994
  87.4721718  68.5085201  39.6381760  88.0676079  68.4773970  40.3869867
  87.0742798  69.3778658  39.6845412 102.3467731  62.6453400  45.6936598
 103.2282829  62.4660873  45.3665018 101.7669201  62.3656368  44.9852991
  99.6798611  92.4021053  48.7393522  99.7828007  92.6604080  49.6552753
 100.2344608  91.6276646  48.6451149  38.3716321  89.9020195  68.8472414
  38.4959650  89.9954510  67.9027605  39.2022276  89.5472431  69.1642237
  94.1978836  48.4544659  59.9793577  93.7187767  48.6935997  59.1859484
  93.9034653  49.0853691  60.6362534 100.3950500  61.3496208  60.0904608
 100.2062607  62.2312212  60.4119778  99.8556137  60.7756901  60.6343746
 106.7187881  53.0766344  49.4298983 105.8829212  53.1400681  48.9677954
 106.5158463  52.5847769  50.2255869  82.9576778  55.3295708  58.6666012
  83.2844543  55.0299406  59.5149374  82.3232555  56.0131407  58.8821602
  90.5355072  73.2109308  79.6247101  91.2138462  73.0416441  80.2784824
  90.3750420  72.3585558  79.2198181 108.6642456  52.5589085  66.0572100
 109.0877533  52.5127792  65.2000332 109.2230225  53.1435251  66.5692854
  73.1263208  62.3040152  40.2845335  73.6489964  62.3499060  39.4839478
  73.5975027  61.6857624  40.8430815  99.2942905  27.4423838  88.5608196
  98.9326954  28.1263924  89.1243935 100.1229858  27.8040886  88.2467270
  87.8532028  57.3185492  62.6205778  86.9567299  57.3086119  62.2851944
  88.3214951  57.9133463  62.0347977  93.8983440  36.6621113  55.2091360
  93.0730724  36.6279864  54.7254038  94.2215252  35.7612300  55.1952600
  92.3174000  55.3349781  41.6667128  92.2003269  55.0522041  42.5736666
  92.8880501  56.1011505  41.7264700  90.5355167  85.3567791  71.2995815
  90.3521442  84.4492626  71.5425444  90.0812626  85.8783436  71.9612885
  15.6682968  75.4745722  51.4111805  15.9299922  74.6503210  51.8214941
  15.1150644  75.9024048  52.0647240  95.4478741  56.1450720  51.5564775
  95.9786224  56.9328642  51.6744518  95.8641624  55.6825066  50.8291721
  84.8779488  48.5700178  27.0715594  85.5506611  48.8931370  27.6709557
  84.3508148  47.9729986  27.6025295  91.3896370  74.5144081  39.1710401
  91.6230679  73.8335514  38.5400271  90.7782650  75.0794125  38.6985636
  90.9062004  85.5833721  45.7675457  90.2964783  85.2562428  46.4289522
  90.3733158  86.1504269  45.2101374  71.8629789  53.6693192  39.8806882
  71.4559364  53.6164331  40.7454109  72.0463800  52.7595758  39.6462512
  95.7564545  65.8862686  30.2712154  96.0559940  66.7434120  29.9682117
  96.3824749  65.2672291  29.8955631  72.9460144  69.6669626  49.8024607
  73.8379908  69.4181538  49.5601606  72.7984333  70.4983521  49.3516350
  79.6993303  56.6492414  55.4236126  80.2678299  57.3938036  55.6202412
  80.3005791  55.9145451  55.3013134  47.4953461  37.2228765  87.5358868
  47.6984978  38.0078244  88.0446339  48.0681705  37.2782826  86.7710114
  10.5153632 100.6598568  81.6603470  11.2562811 100.6604290  81.0543156
  10.2391207 101.5753937  81.7017746  83.6173248  70.0980997  66.7347527
  84.1049767  70.4043627  67.4993658  82.8106880  69.7309875  67.0964098
   6.7073393  73.3270216  18.6731923   6.2367743  74.1508770  18.7999511
   6.2157881  72.6884937  19.1898072 101.2140656  33.9316750  41.9281816
 101.2314415  33.0162477  41.6490316 102.0020580  34.3146396  41.5426397
  81.9449043  62.4241781  31.1012316  81.0577488  62.0774269  31.0065651
  81.9166374  62.9371500  31.9088793  97.8504372  67.0490122  65.0331068
  97.0330620  67.3075962  65.4588556  97.8515434  66.0928440  65.0774813
  60.5876398  67.2168636  -0.2184018  60.6647444  68.1692028  -0.1606389
  60.7138157  66.9114256   0.6799412  96.7503262  66.2928391  13.0371559
  96.7049885  67.0767975  13.5845029  96.1338234  66.4621305  12.3247683
  65.5852697  33.9655034   1.7368397  64.9192235  33.2954614   1.8906197
  66.2915609  33.5022371   1.2865433  91.1166573  70.1362276  41.7774868
  90.6774139  69.5811176  41.1331606  91.0848522  71.0145378  41.3982773
  73.1511688  70.4558992  39.4653249  73.3512783  71.1971569  38.8937283
  73.8288879  69.8099804  39.2660284 108.1647968  52.4809980  34.2203712
 107.9737663  52.5379276  33.2841563 107.5140095  53.0491400  34.6325874
  91.8259144  46.0033512  64.7447920  91.8236923  46.6059017  64.0010405
  92.0726299  46.5471649  65.4928732  88.5091782  65.8457422  38.8702202
  89.0133190  66.6426277  39.0347075  87.8285599  65.8497000  39.5432520
 100.3332138  76.7114878  60.6779718 101.0767460  77.2793198  60.8803606
 100.0481510  76.3778067  61.5286350 110.6975555  71.9850731  12.6265335
 111.3123322  72.6179600  12.9976499 110.3569603  71.5094185  13.3841491
  26.1758256  28.4056258  24.4128847  26.6284275  27.5709772  24.2914534
  25.7661581  28.3327389  25.2749133  17.8581786  53.0794001  70.1167583
  18.4955227  53.7515879  69.8755455  17.2454715  53.0555201  69.3817425
  91.4975739  96.2166691  69.7480488  92.4212646  96.1275101  69.9827671
  91.0256577  96.0432529  70.5625772  76.9224310  50.0521755  58.4181690
  76.3667965  49.8374510  59.1674376  76.9298220  51.0089827  58.3918667
  69.6125889  82.8041935  68.3346939  70.2726507  82.1654320  68.6040211
  68.8838959  82.6651669  68.9396000  80.5514145  43.7879944  71.3365698
  80.3134727  43.5931349  70.4301262  79.7264862  44.0392208  71.7520332
 111.0266590  86.9310951  13.9361763 110.2497482  86.7991447  14.4795370
 111.6264534  87.4280262  14.4925284  97.5998592  53.4109688  46.2748146
  96.8043995  53.7797832  46.6588068  97.7543259  52.6066685  46.7702675
  17.6820362  48.2525826  46.6045237  17.4280727  47.4304771  46.1851454
  17.6215303  48.0716467  47.5425196 111.7548561  75.0853968  63.4526491
 111.9185352  75.6355333  64.2186737 112.4886894  74.4709778  63.4378290
 108.4034348  46.6884041  53.6836576 109.1966152  46.2535667  53.9967203
 107.7023029  46.3271713  54.2260218  86.0694027  53.3058023  37.2761416
  86.5541553  52.7277851  36.6869521  85.4447269  53.7571955  36.7084718
  84.0986252  58.6492682  20.4598427  83.9992142  57.8003263  20.8907104
  85.0385189  58.7259150  20.2956271  78.7307882  75.1570749  24.5187950
  78.3952904  74.3455458  24.8997092  79.2883921  74.8696947  23.7958002
  71.7238474  55.0489569  54.8402119  72.0606899  55.7809067  54.3234730
  72.4700832  54.4564009  54.9309826  83.9110851  77.1656704  51.6618156
  84.2748070  76.5064096  51.0707903  84.2264843  76.9102573  52.5287199
  87.6440620  58.0187559  43.9616442  87.7198315  58.1855631  44.9011469
  88.1820869  57.2412968  43.8122654  83.8071251  69.8647022  52.4762487
  83.4739304  70.7001925  52.8036165  83.3389378  69.7261810  51.6529369
  80.5275059  87.2097015  32.3458815  80.2820301  88.1000233  32.0942736
  79.7895479  86.8965435  32.8689218  68.7454748  94.5726013  69.1294336
  69.2026186  93.9130306  68.6077023  68.1348991  94.0702534  69.6689415
  99.4797230  60.2433586  41.2430668 100.3280067  60.6535959  41.0746622
  98.8959026  60.9745646  41.4448690  86.5421772  85.1433372  68.4416389
  87.0174694  85.3371620  69.2495775  87.2179604  84.8490620  67.8309345
  95.9892941  39.6313381  71.7321968  95.7477665  39.2817545  72.5899172
  96.7929268  39.1654015  71.5013027  66.1820555  48.2083321  35.1895308
  66.2568045  48.4333801  36.1168909  66.8890333  47.5811863  35.0375223
  85.3885174   5.2443993  77.0986271  86.3167572   5.0170779  77.1526957
  85.0979233   4.8686823  76.2675905  89.8272133  52.2245598  27.2506690
  89.1145515  52.0191622  26.6455603  89.9031353  53.1781292  27.2164512
 103.9617825  88.6483860  54.4041967 104.6194649  89.2770290  54.1067123
 104.3904591  87.7964687  54.3223524 109.3030930  80.2919006  52.8995466
 110.1976490  80.4285431  52.5875902 109.0603542  79.4301414  52.5608969
  92.5547409  93.1403732  72.9682922  93.1031799  93.7123299  73.5052347
  93.1530190  92.4640560  72.6506472  63.1060314  79.2247391  11.6386199
  63.7540817  79.8537970  11.3215232  63.4349012  78.3744478  11.3469243
  11.5505779   1.7488948   0.4825656  12.4758434   1.6176549   0.2754632
  11.1333358   0.9190285   0.2513438  81.6315842  63.0402422  10.8824337
  82.1266556  63.4966564  10.2021205  81.1234283  63.7286615  11.3114846
  81.8922806  58.1421232  39.4141412  82.4172020  58.0452681  38.6195946
  82.1447563  58.9959955  39.7654033 104.2882061  77.6758480   7.9874694
 104.2856789  77.6280880   8.9434743 104.9499607  77.0390701   7.7175957
  71.4716005  57.3979521  36.1480761  72.4183798  57.4281025  36.2856984
  71.3497019  57.7118111  35.2520490 103.5435772  61.6308212  70.4057455
 103.3192730  61.8858337  71.3006639 103.2492065  62.3649216  69.8666000
 110.0185394  39.6211743  23.1377459 110.2399540  40.2748203  23.8010335
 109.9523354  40.1194620  22.3231554  52.2248507  42.8453207  84.9895859
  52.5430298  42.0277262  84.6067810  52.2997379  43.4859991  84.2823696
  38.8710952 104.5215797  10.2020657  38.6653376 103.6447716   9.8778504
  39.6655416 104.4040298  10.7229030  67.3455954  66.8025446  13.3755088
  67.4457359  66.7595196  14.3264830  66.7777014  66.0625362  13.1607497
  89.5627689  56.6154051   7.4795663  89.5915318  57.0700216   8.3214277
  90.2732849  55.9758520   7.5283283  80.2334023  86.7096806  71.6592693
  80.7912159  87.4755573  71.5231943  80.3480530  86.1859417  70.8663082
  87.5446510  56.7874813  36.6736507  87.4546432  56.1000919  36.0136318
  88.2024384  57.3816872  36.3124561  72.8500700  73.7478638  15.3395736
  72.1907187  73.8567829  14.6542823  72.5609779  74.3274307  16.0443854
 106.7538834  68.8426018  13.8182962 106.1444473  68.7138796  13.0914855
 106.3795376  68.3340836  14.5376778  84.5253658  61.6674185  42.4609756
  84.7727299  60.7997751  42.1412277  84.6578598  61.6205025  43.4077978
 108.7155819  37.4242115  32.4672008 107.7622604  37.3517704  32.4206686
 108.8799000  38.3617878  32.5680947  99.3635178  77.8270006  25.2492285
  99.1173649  77.0557451  24.7385335  98.8364697  78.5362005  24.8811460
  66.7983580  90.5795670  35.3769779  67.1111250  89.7824287  34.9492264
  67.3072004  91.2830734  34.9739933  31.8977118  16.1086965  13.7710238
  31.4635515  15.3033996  14.0525055  31.7291498  16.7314303  14.4781458
  82.8413677  62.6750183  46.1192513  83.6719418  62.4901485  45.6808281
  82.1808529  62.5724602  45.4341030  95.2439022  72.4132633  56.6260147
  95.4729557  73.3201790  56.4228487  94.3067932  72.3554087  56.4396811
  99.2585850  22.9811573  35.2557778  99.4060040  22.5623965  36.1037970
  99.8723030  22.5461054  34.6639085  90.1188087  64.8851204  61.3668966
  89.4566631  64.3574286  60.9204340  90.6097031  65.3025055  60.6590462
  91.2061310  71.0586548  45.9045458  92.0945644  70.8620548  45.6074572
  90.7666397  70.2085447  45.9245253  83.6986446  47.4366999  62.9003525
  84.5476532  47.8327179  62.7039003  83.8791943  46.8246078  63.6137772
  94.6157551  59.0820885  55.6418037  93.6652946  59.1796255  55.5840254
  94.8170471  59.2394733  56.5642691   7.7299219  85.5421638  67.3733091
   7.6516742  85.7630634  68.3013821   6.9519883  85.9265423  66.9692039
   6.5928984  78.4970903  51.2087536   7.3732603  78.6470652  50.6751108
   6.4139104  77.5615883  51.1137104  81.3140297  46.5238857  20.3215122
  80.5969524  46.3492298  19.7119796  81.4387226  45.6972885  20.7877946
 104.2975235  81.3452911  57.3434448 103.7055016  80.7436466  56.8920374
 103.9513111  81.3986588  58.2342434  88.1176949  54.9005842  38.8388038
  87.3108387  54.3856335  38.8326287  88.0419636  55.4736090  38.0758262
 107.5331020  74.7224474  41.9690466 107.4816608  73.9494467  41.4068604
 108.1563377  75.2990198  41.5270376  59.2915440  78.0701303  21.2115550
  58.6545992  78.4237671  21.8324232  60.0711584  77.8986359  21.7397785
 100.1629029 105.9193643   8.0325782 100.6550227 105.4154241   8.6807251
 100.6977139 105.8769967   7.2398525  89.5932579  58.2823610  35.9248757
  89.8123360  59.1817379  36.1685085  89.3638611  58.3346748  34.9970436
  90.1035976  75.9028101  53.8219929  90.4938030  75.4286766  53.0877113
  90.6256199  75.6412697  54.5804977  79.8742247  69.2979574  22.7430558
  79.4379568  69.0508032  21.9276929  80.5673409  68.6466408  22.8507972
  93.5242653  81.7607975  27.8426766  93.7957668  80.8958149  28.1497765
  93.9345932  82.3718929  28.4545827 110.3685188  54.0926886  58.9435053
 109.7449875  53.9271021  58.2363796 110.5233669  55.0366879  58.9101219
  77.6133299  56.1751032  44.6382952  78.0686092  56.9555902  44.9541903
  77.9002905  56.0816288  43.7299204  88.5215282  78.5198021  40.6687260
  87.7628994  78.7452412  41.2071419  89.0116215  77.8899145  41.1971951
 107.6960850  66.8040514  72.3351812 108.2022095  67.5851297  72.1115875
 108.0891991  66.4887762  73.1489992  94.0368748  76.1795235  62.0690870
  94.5308685  75.3869915  62.2790766  93.7766361  76.0644293  61.1551619
  22.0712781  90.6656647  31.8313694  22.2191381  90.1725388  32.6383376
  22.9492903  90.8346653  31.4896631  78.3564806  65.9543896  50.5502081
  78.2899618  65.2147007  49.9463272  79.1917706  65.8229733  50.9988213
  18.1053114  65.4566717  56.7313623  18.6690938  65.0727510  56.0598087
  18.0430532  66.3813353  56.4918661 101.0851955  42.5716066  71.8084717
 101.4117718  41.6952896  71.6043854 100.5242538  42.4459314  72.5738382
  32.3751140  11.5394557  85.8302212  32.8411865  11.6867459  86.6532135
  32.0175529  10.6553555  85.9123707  71.6359901  53.2944107  23.3065748
  72.5216246  52.9659176  23.1517434  71.7372370  53.9323425  24.0129924
  87.0961475  53.9177752  58.7432384  87.7701569  53.3031940  58.4530210
  87.3643970  54.1674280  59.6275187  88.1569099  64.0750551  32.1395397
  87.9135513  63.8957691  31.2313199  88.4120750  63.2224369  32.4919081
  87.3278522  66.5833998  33.0668044  87.7014923  67.0215559  32.3021841
  87.5916290  65.6682491  32.9711223 103.6696625  92.7058220  48.0810118
 103.9527321  92.1483517  47.3562145 104.4560432  93.1906891  48.3315134
  73.8275862  72.7391434  37.9352117  73.8127518  72.7720594  36.9786930
  74.5155764  73.3558130  38.1854486 108.3592415  59.5959854  52.2847080
 109.2488194  59.2464638  52.2327137 108.3309746  60.0551224  53.1241322
   4.7458789  87.7443886  61.1564255   4.4682017  88.5840416  60.7902050
   4.0423548  87.1378803  60.9252930  84.0035820  74.6023607  76.5164232
  84.3219948  75.4613590  76.7938519  84.5757103  74.3583727  75.7888460
  94.5757866  65.0668287   1.5485054  93.7989235  64.8178101   1.0478044
  94.9459457  64.2355585   1.8455029  89.8118877  60.1812077  69.2115927
  89.0826702  60.2464437  69.8282146  89.7437382  59.2964172  68.8528013
 108.4915447  80.7742786  22.9920769 107.5482368  80.8040810  23.1518269
 108.5754299  80.3728676  22.1271706  87.7555656  58.0397511  46.5501356
  88.3785248  58.1169224  47.2727776  87.4346542  57.1396589  46.6056538
  77.3506594  71.1222935  15.5872262  77.8627157  70.7428932  16.3014281
  77.5336123  72.0607042  15.6335557  92.6047897  91.2155437  64.6105194
  91.9303989  91.7186260  64.1540718  92.8977871  91.7925262  65.3158331
  89.5574570  81.9314957  19.9633968  89.6333408  82.8049374  19.5792580
  89.2159081  81.3868046  19.2542505  95.8435440  71.5776014  66.7676306
  96.0842896  72.4575377  66.4778233  95.8203316  71.6379404  67.7226448
  85.2591324  64.2927742  30.2328229  84.8252964  63.7957096  29.5393181
  86.1934757  64.1520500  30.0797796  92.7743530  63.9759445  12.8462207
  93.6673641  63.8914108  12.5121355  92.3159504  64.4856739  12.1781790
  87.9226494  51.6881084  35.7087207  88.6890030  51.2065268  36.0202074
  87.3151970  51.0085201  35.4165030  95.7960892  77.2255421  31.7435670
  95.8651733  78.1448650  31.4860725  96.6753101  76.8721676  31.6081953
  90.5240154  65.1193810  34.2148066  89.7261047  64.5930004  34.2647052
  90.5635738  65.4085493  33.3031869  98.1649685  85.0218868  59.5489073
  98.0261803  84.6122646  60.4028320  97.5191021  85.7274818  59.5139217
  86.6477680  53.1594896  44.3495464  87.0893574  53.8986588  43.9313841
  87.2571850  52.4282646  44.2488194   6.9318098  11.2184346  64.4708204
   7.6299393  10.6333554  64.7649813   7.0621526  11.2904155  63.5252714
   1.5503851  88.9744759  70.1629925   1.8067983  88.0524826  70.1424932
   2.0974898  89.3901062  69.4965363  98.7927914  87.5286674  61.3810825
  99.6183777  87.6953030  60.9262657  98.1566143  88.0879307  60.9352684
 103.7277412  17.9106319  61.0138416 104.3641663  17.3168850  60.6155157
 102.9235458  17.3949063  61.0732555  86.0534286  59.8964500  24.5763707
  85.2722645  60.3743219  24.2977023  85.7191753  59.0617418  24.9046564
  83.0552959  85.1386166  10.0413215  82.1682644  85.1533127  10.4007494
  82.9391956  84.8781109   9.1276002  75.1943731  67.3766804  57.3685217
  75.7212591  68.0368853  57.8187943  75.7764292  66.6212940  57.2858381
  78.4399891  62.9022121  74.5501041  78.4085894  63.4412479  75.3404760
  78.1216002  63.4778738  73.8547802  77.4950838  70.0076294  45.9607124
  77.1130371  69.4869661  45.2541828  78.4369040  69.9871063  45.7910490
  86.4382362  71.6611958  61.9262934  87.2606850  71.1715031  61.9248343
  86.3448620  71.9752264  61.0269070   1.2755573  92.3905754  24.4773388
   0.3353848  92.4860954  24.3250728   1.3395466  92.0300293  25.3617239
   7.8146267  49.1098166  64.7178841   8.5771793  48.6985350  64.3109512
   7.5276285  49.7647429  64.0815401  24.1654229  77.0901251  75.0952578
  24.4470644  77.3623371  74.2218685  23.5958338  76.3368177  74.9392891
  77.8106165  60.7978773   5.2966124  77.0282412  60.3286982   5.0067973
  77.6470804  60.9886980   6.2202322  80.9597683  49.4132090  16.7698169
  81.6410446  48.9551592  16.2775910  81.4188576  50.1350164  17.1993077
  91.8153954  54.4216871  61.5207720  92.4033070  55.0439930  61.0926056
  91.8857098  54.6281242  62.4527979  75.7457495  63.0470657  54.1885567
  75.8782578  62.4864340  53.4241152  76.5077019  63.6263800  54.1956758
 102.4901485  98.0045033  65.5756521 103.0564690  97.3030186  65.8972645
 102.6505375  98.0282974  64.6322870  92.7478123  48.9277029  37.1428657
  93.5102177  49.4117451  37.4601555  93.0617237  48.4713650  36.3621950
   8.4735650  98.4674644  87.3690891   7.5185251  98.5075378  87.3188400
   8.6517876  97.7378654  87.9625130  47.6042986  83.4741306  31.2320757
  46.8151379  83.0691338  31.5918446  48.1086683  83.7403202  32.0008349
  86.9645691  80.3415871  61.5199852  86.8735790  79.4182634  61.2845421
  87.5353527  80.7061291  60.8435631  85.4842091  19.0581906  35.3843570
  86.0332203  19.5280874  34.7566533  86.1023998  18.6956751  36.0189080
 100.5081463  54.1493988   4.3483385 101.1693478  53.9812469   3.6769429
 100.9184456  54.7850704   4.9346814  76.9646263  78.3734417  47.0481253
  77.1730995  77.7771473  46.3289547  77.8009653  78.5156298  47.4914598
  16.7890322  68.7138414   6.3029456  17.4900997  68.3331537   6.8319184
  16.0760224  68.8651323   6.9233966  80.1921272  53.3732986  24.7243571
  80.3334045  52.4485779  24.5214558  80.4711056  53.8370752  23.9348531
  98.0807972  73.1792831  48.1761503  98.9499187  72.8573179  48.4153080
  98.2504749  73.9759541  47.6734018  85.6096077  81.9027233   8.5140634
  84.8301697  81.4309502   8.8075733  85.8924198  81.4332104   7.7293313
  15.2865946  59.7134733  85.4683971  16.0027826  60.0389862  86.0136890
  15.7216299  59.3127584  84.7157955  55.4784441  96.9726658  36.7820144
  54.8617220  96.6392612  36.1303067  56.2563992  96.4247799  36.6779041
  91.8610764  46.3299465  60.5618286  92.7530003  45.9952307  60.4686785
  91.3017464  45.5731773  60.3866625  15.4926920  60.4272652  74.9502373
  14.8832262  60.6363010  74.2423630  15.4948986  59.4708824  74.9897861
  95.5909443  73.5291529  62.5869894  96.1981297  72.8080654  62.7531242
  94.7698593  73.2488537  62.9913187  90.8285904  73.6263466  10.1179922
  90.2008152  72.9039335  10.1340401  91.4860630  73.3581018   9.4761115
 108.3823967  46.3105345  45.4269791 107.9947472  46.1961460  44.5592928
 109.2996597  46.5221357  45.2535057  93.3372974  69.0523148  52.6836443
  93.3942318  69.9567032  52.3753119  92.4309921  68.7970972  52.5112438
  14.1214418  96.1980343  67.2083807  14.2474067  96.7002869  68.0134344
  13.2220185  95.8755398  67.2655296  96.1979675  75.3929424  12.9075158
  95.3913784  75.9079075  12.9287708  96.2369156  75.0455284  12.0164394
  11.1718619  80.6486320  30.1479363  10.5372512  80.0268841  30.5042124
  11.9858992  80.4521847  30.6115961  92.3065948  65.8148718  31.3800168
  92.6868820  64.9474144  31.5183473  92.1829224  65.8738708  30.4326749
  89.3234062  52.1478701  58.3667755  88.9772129  51.3597345  58.7853718
  90.0399303  51.8317175  57.8164434   9.1776168  73.8704824  45.5159235
   9.1996604  74.7912979  45.2554512  10.0895011  73.5844660  45.4621410
 102.5228786  64.1931248  62.3507833 101.8477821  64.2917585  63.0221510
 102.1412468  64.5891523  61.5673590  88.5201359  87.2737122  18.5519326
  88.6216545  86.3469028  18.7686086  87.8223896  87.2915077  17.8968942
  75.7295036  55.4331923  54.5711517  75.3724289  54.5826578  54.8267317
  75.0517225  55.8209229  54.0175200  93.3580875  61.4735317  63.9037561
  92.5962639  61.1041164  64.3502903  93.1459332  61.4063072  62.9727840
  62.1098995  52.6098347  16.6218674  61.9456911  53.5363436  16.7975116
  62.5686216  52.2959566  17.4011528   0.3055023  75.0481033  46.4134741
   0.6953923  74.6813583  47.2070217   0.5909047  75.9617376  46.4065838
  11.2807405  50.7291842  22.6714063  10.7448566  50.6514311  21.8820930
  11.4398575  51.6687775  22.7612758  77.3571777  77.2962809  67.6458740
  76.4262438  77.1901417  67.8416443  77.5125170  78.2375717  67.7237892
  76.7060137  69.7689104  73.3605814  77.4036074  70.2668715  73.7867641
  76.3723946  70.3562880  72.6824141  62.8053427  58.1058550   6.7843896
  62.3915100  57.2549868   6.6394931  63.1377792  58.3602047   5.9235609
  78.3248806  55.5606794  42.0168543  78.3928394  56.1869097  41.2961197
  78.8810349  54.8283577  41.7510891  13.3026695  71.1231661  59.0703201
  12.8603888  71.2176800  59.9139357  13.4965396  70.1880884  59.0049601
  81.3115978  51.3675117  61.9997549  81.0589027  52.0477009  61.3754749
  81.7623138  51.8401575  62.6995373  76.7867136  70.4469728  22.1637297
  77.0114565  69.5492649  22.4083614  76.3032198  70.3575134  21.3424730
  67.5652361  90.4915333  69.1071272  67.5226068  90.5065918  70.0632572
  67.4230289  89.5737457  68.8754606 108.6073971  74.2349529  64.7463369
 109.0570831  75.0028992  65.0988626 108.1534004  74.5592928  63.9685678
 103.4382248  54.5779800  34.1746068 102.6985168  53.9705181  34.1821051
 103.9948368  54.2687750  33.4598970  91.4700317  69.2372608  56.1910820
  91.1685371  69.5210695  55.3280735  92.4009800  69.0503883  56.0700464
  85.8059120  34.5924973  67.5957537  85.1271534  34.4224119  68.2488823
  86.5225983  34.9874091  68.0923891   1.8683991  28.4262633  35.5957079
   2.4065833  28.5841084  36.3713837   1.7915276  29.2844844  35.1788378
  99.5352936  69.9407959  17.4733329 100.3691769  69.7720098  17.9119468
  98.9666271  70.2825451  18.1632984 104.8911381  75.1158142  33.0437708
 104.2208672  74.7027063  33.5881066 104.8572540  74.6356153  32.2164297
  80.3381729  81.8914413  26.8617535  80.1092815  81.2620735  26.1778474
  79.9071598  82.7031708  26.5942311  78.4592056  54.4253731  53.6142969
  78.1042576  54.2188835  54.4789362  79.3444967  54.0615559  53.6256838
 103.8371468  36.2079930  54.3042231 104.5404720  36.7809582  54.6096230
 103.9535141  36.1710525  53.3548403  77.3149872  65.5539465  57.1219492
  77.3671818  64.8149014  57.7280188  78.2079029  65.6574345  56.7929697
  95.1403999  49.4690228  51.7240858  95.8222103  48.8261318  51.9191742
  95.0482845  49.9732590  52.5324774  78.7704182  46.4811611  25.2941179
  79.2001772  46.0838413  26.0515332  78.1026077  45.8454752  25.0368834
 107.8925991  51.9279337  55.1054430 108.3480263  51.4631319  54.4034672
 107.2560501  52.4811840  54.6527290  83.9928055  24.1618419  26.1468792
  83.0670357  23.9369798  26.0539770  84.1817474  24.0202808  27.0745063
  64.8371077  65.3692770  53.0299520  64.8563719  65.1483154  53.9611006
  65.7220650  65.1771545  52.7198410  81.1460590  63.5811377  60.9122229
  81.2630939  63.2157516  60.0352812  81.0465813  62.8162670  61.4790678
 105.0552082  41.9740486  57.9460478 104.2117023  41.5291739  58.0285883
 105.1270580  42.1802473  57.0140839  14.2210245   0.3698444  30.6953144
  13.6560285   0.9089199  30.1417708  14.6323490   0.9918717  31.2954187
   3.2732466  55.4521608  25.0362325   3.3454952  56.3224697  24.6443462
   4.0908396  55.0142765  24.7995234  92.5812626  55.1687002  44.3678093
  91.7898178  54.6885347  44.6113062  92.8115940  55.6648445  45.1533175
  86.0776138  56.4520311  30.7171202  86.5059185  55.9836054  30.0006294
  85.9875488  57.3494482  30.3965425  99.5025539  34.3829703  44.0260220
 100.1631927  34.1618967  43.3695745  99.8657703  35.1398134  44.4859123
  91.2724590  50.0621223  60.1979446  92.0582199  50.5411482  60.4612589
  90.5607128  50.6935835  60.3024435  85.9189701  48.6511421  81.0809040
  86.6479683  48.4689236  80.4879570  86.2791824  48.5043669  81.9555092
  97.6080227  52.7582932  36.3059092  96.8486977  52.3329830  35.9074450
  97.3702240  53.6846304  36.3456702  75.7052994  91.5557194  34.1308713
  74.7753477  91.6862392  34.3163133  75.7376814  90.7400036  33.6310768
  60.8516359  71.3448715  10.3421783  60.9084034  70.6168318  10.9610212
  60.3191710  72.0007658  10.7921910  90.1638699  48.1180143  37.6702046
  90.0537395  47.8750849  38.5894918  91.1102200  48.2076168  37.5578594
   6.7255187  77.7874947  83.0025005   7.0149690  77.1086168  82.3929405
   7.3271203  77.7162695  83.7436008   7.7094048  83.6607170  31.4445519
   6.8212706  83.4589291  31.7390561   8.0023921  82.8633881  31.0033512
  63.2118320  70.7423544  51.3338232  63.9251900  71.2916136  51.6588926
  62.9072809  70.2640820  52.1050167  74.9431896  72.0414591  45.9784174
  74.9770832  71.1490345  46.3228798  75.8608770  72.2959185  45.8818102
  78.6967993  97.1333408  34.6382427  79.4035101  97.3619366  35.2420092
  79.0346766  96.3848877  34.1464138  96.6480446  64.6647310  57.5857306
  96.1811543  65.2875233  57.0286226  96.3216877  64.8412514  58.4680939
  71.4004135  98.3528423  58.0429029  71.4490747  97.8399467  57.2361803
  70.6871891  98.9726543  57.8900003 107.6786327  86.1663723  77.3521662
 107.3995209  85.8119202  78.1963778 107.4328613  85.4938126  76.7169571
  86.5643311  79.2511702  71.3845539  86.0456562  79.6976709  72.0537615
  86.1604309  79.5099735  70.5562353  79.6675777  92.3805141  31.7051506
  80.6204891  92.3555565  31.7921853  79.3767595  92.9491425  32.4181128
 103.9594650  75.3734255  51.5492821 103.2376575  75.9974670  51.4731216
 103.5593224  74.5890141  51.9245434  79.0798092  80.6659985  58.6497927
  79.8045206  81.1013603  58.2009220  78.3679771  80.6645298  58.0098534
  23.2287979   4.6023044  15.8966684  23.7733054   5.2349490  15.4281533
  23.4631181   4.7199991  16.8172526 101.6605759  77.7029657  35.1555562
 100.9963226  77.3860359  34.5435524 102.4940300  77.4779844  34.7420645
  62.0043945  81.1768818  69.1212797  61.6814327  80.3354168  68.7989998
  62.4796057  80.9597683  69.9233198  29.2879820  16.1373508  71.6953850
  29.1660976  17.0612645  71.4768457  30.2116299  15.9673178  71.5104675
   5.1099694  84.8486519  15.6582057   5.1439130  84.5995903  14.7346008
   4.1763526  84.9448967  15.8461630  66.2915897  88.1947231  63.9907980
  65.6230640  87.5295830  63.8267899  66.1750889  88.4294891  64.9114180
 103.2490349  76.9689560  65.3888798 102.6232815  77.6904392  65.3246737
 103.7398624  77.0038271  64.5678377  95.6215382  64.6657324  59.9096918
  95.6645775  65.0097418  60.8019018  94.9470997  63.9875078  59.9467707
 104.9393082  97.9681778  67.7661276 104.2327595  97.7770805  68.3829737
 104.7520161  97.4142075  67.0083189  49.6640348  94.5002174  14.6373081
  49.8992586  95.0026417  13.8572633  50.2353334  94.8432636  15.3244507
  78.6704302  76.9760466  56.9470406  78.7439156  76.5521669  57.8021193
  79.2648554  76.4816141  56.3827419   8.9779228  67.9918528  37.7492929
   8.2733804  67.6910877  38.3232188   8.8545829  68.9395237  37.6950502
  73.9630699  86.8037415  45.9838104  73.3358669  86.7423630  45.2633381
  73.5325098  86.3601780  46.7146301  46.5408611  87.8673649  67.1061230
  46.6157389  87.4566650  67.9674864  46.5800524  88.8069725  67.2845554
  87.8602314 105.3449631  57.0494843  88.6168766 104.7590828  57.0711517
  87.3705006 105.0750637  56.2726021 110.2278709  83.7848091  21.8636036
 109.5643902  83.1660938  22.1689320 110.8097172  83.9020061  22.6145720
  98.1523418  86.2600517  16.6455972  97.7353954  87.1019173  16.8290246
  97.8812122  85.6956959  17.3696339   2.2160244  35.1373148  51.1844492
   1.7026487  35.6211853  51.8314028   2.5024173  35.8032036  50.5593061
  87.5845718  89.3812656  23.1614232  88.4807777  89.5534420  23.4502459
  87.6370335  88.5411835  22.7056456  43.2916734  19.1105335   0.4787239
  44.0584848  18.5420577   0.5499539  42.6665303  18.6054294  -0.0411812
  16.3856232  95.7888699  37.9594874  17.0494664  95.6802845  37.2784925
  16.8349850  96.2640572  38.6584163  21.2383628  94.2997456  37.0736575
  21.5938973  93.4334755  36.8751287  21.9806886  94.7872162  37.4308014
   4.8707190  91.0197449  45.9358168   5.3711641  91.5654373  46.5424538
   5.3962946  90.2256680  45.8386230   0.4770540  51.9494963  58.7394333
  -0.3798458  52.1318626  59.1250467   1.0639371  52.5856733  59.1481876
  11.3966918  90.6390476  29.6217060  11.7535186  90.8464336  30.4853559
  10.4518676  90.7585621  29.7179151   9.7011536  73.2337904  26.0989475
  10.1286745  73.7029934  25.3824949   8.8705343  72.9357910  25.7281351
 108.9087009  44.1849566  47.7415085 107.9914379  44.3418074  47.5173187
 109.3066883  43.8834524  46.9248438   8.5277659  73.1450272   6.4137810
   8.6794591  74.0892839   6.3737941   9.2155832  72.8162479   6.9926107
  86.7873955  89.3969250  39.6883488  87.6644611  89.6369267  39.3893671
  86.6429138  88.5216808  39.3287492 104.1112518  50.2680159  26.7779350
 103.7244987  51.0245752  27.2186875 103.3641338  49.7122812  26.5561175
  82.5460625  98.8913441  44.0981627  81.7312527  99.1169357  44.5469809
  82.7834511  99.6853828  43.6192179  68.7168550  84.8904228  65.4079151
  69.3996906  85.0861168  64.7662973  69.1281986  85.0613976  66.2551451
  76.1532164  80.4744148  45.6494379  76.4743137  79.7143364  46.1346245
  75.6606197  80.1013184  44.9184275 101.1186504  49.4577074  49.7706938
 101.5063381  48.8152933  50.3650284 100.5525208  48.9418077  49.1966105
  17.0999134  23.9468813  39.6577764  17.8675675  24.0391421  39.0934825
  17.4593043  23.8843679  40.5427408  99.9916363  83.1901264  32.6614308
  99.0767097  83.3487320  32.8937817  99.9546528  82.8285694  31.7759132
  60.6359291  18.7362838  11.8149459  59.8063326  19.1918552  11.6719198
  60.5039167  18.2477307  12.6274240  65.9599113  80.1793671  43.4727716
  65.0854063  80.3402328  43.8271666  65.9002113  79.3120384  43.0722523
 101.1953354  88.2458019  47.3032188 100.9171200  88.9100647  47.9337645
 102.0041752  88.5948372  46.9288111  75.8890390  89.9021435  66.7047834
  75.0768137  89.5666218  67.0841742  76.5704441  89.3242359  67.0482063
  19.4810987  93.7103748  71.8786335  19.5574534  93.1071854  72.6179361
  20.2892375  93.5835457  71.3815832  98.7060642  73.6006737  58.8106394
  98.0368805  73.9858389  59.3763876  99.5306873  73.7677670  59.2670441
   7.1979547  61.6594887  74.6032906   7.0628124  60.7263803  74.4381332
   6.8436271  61.8011189  75.4811430  61.4236116  77.3594093  28.0258465
  60.6314993  76.9685745  27.6570129  61.1119890  77.8767920  28.7684345
  23.7892747  93.9969540  54.5944214  23.6981058  93.4435749  53.8187265
  23.7891340  94.8909092  54.2522526  82.9162693  65.0591850  54.7108078
  82.3073292  64.4965982  54.2323542  83.0684948  65.8004427  54.1246319
  32.2666454  56.3098812  46.1305523  33.1101561  56.1927605  46.5675926
  32.4189734  57.0144653  45.5007982  84.3975735  69.9160957  43.0638647
  83.9865112  70.4707623  42.4008417  84.8025513  70.5323744  43.6741304
  22.4761438  73.9248848  27.9054618  22.4265814  73.2371378  28.5693693
  23.2173538  74.4665051  28.1765461   6.9940084  81.8111420  22.0327377
   7.5256342  81.9456959  22.8172779   7.4081391  81.0724545  21.5865755
  63.5595989  81.6302776  24.9780059  63.5370779  81.9496918  25.8800602
  62.7783823  82.0053768  24.5715237   3.4536356  94.4394112  33.9550519
   3.6510560  93.7351513  34.5725274   4.1483510  94.3843746  33.2988715
 100.7039642  43.0083323  65.6460619  99.9078751  42.4795437  65.6995392
 100.8113289  43.3692503  66.5260887  95.7647896  93.2297516  25.9222150
  95.4619980  93.5154629  26.7841387  94.9649620  93.1454754  25.4031777
   1.1329550  87.7497768   1.5315913   0.2476444  88.0796623   1.6853207
   1.0914953  87.3479366   0.6638160 108.8570499  65.5942440  18.9668858
 108.0985165  66.0329628  19.3520951 108.9855289  64.8167419  19.5102191
  66.6435909  12.9817247  75.0430059  66.7604589  12.1242404  74.6339941
  66.1554146  12.7995551  75.8459568  61.0268211  75.6559086  24.7870874
  60.0928545  75.8076477  24.6424580  61.0597849  75.0648785  25.5393052
 105.2644253  70.4930782  48.5313654 104.5010471  71.0705566  48.5346889
 105.9680462  71.0240555  48.9044714 109.7423267  53.4191799  52.0870686
 109.6132565  53.8569117  52.9284763 109.3520164  52.5532007  52.2052383
 106.6607857  78.5660553  69.6238565 107.4940395  78.6603308  70.0854063
 106.8493176  77.9550314  68.9115810 110.1781845  75.0175714  45.5860376
 109.5754910  75.6841230  45.9157372 111.0431671  75.3175688  45.8653784
  -0.0689057  81.5986156  14.2805648  -0.5588969  80.7846165  14.3969560
   0.8006455  81.3162804  13.9970100   8.6184973  73.0143833  75.0057888
   9.4786882  73.3323383  74.7315454   8.7082911  72.0614910  75.0186443
   5.6089085  53.0685091  43.5104704   5.4003268  52.5337791  44.2764902
   5.0829858  52.6917648  42.8049898  88.3873463  82.8754044  44.0968704
  88.5236740  82.3500252  44.8852968  88.2973671  82.2326374  43.3933210
 102.1106625  82.1249580  13.0094171 102.7285194  81.5358162  13.4423018
 101.7462158  82.6535416  13.7193596 111.0199928  54.6823931  31.5386558
 110.9295273  55.5164814  31.9994664 110.1820183  54.5636749  31.0915112
  96.9209766  98.2796288  27.2323918  97.7442837  98.7411690  27.0731211
  96.9986725  97.4700832  26.7275763  86.5393543  53.7721634  41.1861753
  85.7125854  54.1974926  41.4137125  87.1732426  54.4881201  41.1435652
  31.1189413  28.3571982   2.6281250  31.2528229  27.7566028   3.3613324
  31.3319755  29.2201209   2.9833928  98.4410000  69.6042967  64.7391176
  98.0920219  68.7222433  64.8672724  99.0059566  69.7509146  65.4977751
  88.0389214  70.0908089  36.7819071  87.8609943  69.5609951  37.5590014
  88.3731365  69.4665718  36.1378121  90.6764603  73.2972336  49.3726444
  90.5667210  72.3475170  49.4198704  90.8949947  73.4678221  48.4564734
  10.0100720   0.3693522   2.9620600  10.2201951   0.0152119   2.0979626
  10.8557081   0.6326686   3.3250958  22.2528028  14.5147467  80.1074028
  22.2330761  13.6647487  79.6676874  23.0920100  14.8974156  79.8514128
  97.0096874  95.2721977  37.6935172  97.7074718  95.6651020  37.1691489
  96.5932751  94.6426487  37.1048808  88.8569832  96.8876457  51.3383770
  89.7865582  96.8748283  51.1104584  88.6141205  95.9642220  51.4056921
 100.3377914  92.3575783  51.4465046 100.4339981  91.4737320  51.8011808
 101.2288475  92.7067757  51.4286137   5.7404613  65.8018017  51.3596487
   5.2820665  66.2317944  52.0815945   6.6230851  65.6456184  51.6955280
  95.9536648  82.6073647  26.4494371  95.9848118  83.2927132  27.1169376
  95.0525761  82.2857380  26.4782524  64.2069149  30.3925800  82.7663994
  63.6609936  31.1108446  83.0862427  64.1341066  30.4424763  81.8132782
  81.5354538  88.5811043  57.2841024  81.9934273  89.4124317  57.4081373
  81.2753773  88.3169270  58.1665993 109.7025299  76.4839888  26.7962289
 108.7519455  76.4184380  26.7050815 110.0423336  75.7352638  26.3061476
  16.3464046   1.3772270  23.5815692  16.9356120   1.3335285  22.8284693
  15.5019987   1.6331853  23.2104945  86.2565041  48.3373976  24.8916674
  85.5188274  48.5101652  25.4766703  85.9971237  47.5559664  24.4034839
  73.7504673  66.7337418  36.2499833  74.2891836  66.5658236  35.4767966
  73.6025572  67.6793718  36.2380767 106.6199780  94.8355961  42.1481085
 106.8817997  94.5314121  43.0171013 106.0198116  95.5613899  42.3191786
  93.0622101  71.6810989  61.7631626  93.0229568  70.7249784  61.7401934
  93.3877945  71.8864632  62.6395512  86.3280201  47.5430870  60.0128841
  85.7131863  47.9242229  60.6397390  87.0361233  47.1938276  60.5540371
 108.1292343  86.8652630  60.3531265 107.5578690  87.4464607  60.8550978
 108.6351490  86.3955021  61.0161591  12.0871484   2.5826517  25.5033946
  11.8292105   2.9472515  26.3500166  12.3337626   1.6782990  25.6971979
  43.7475634   3.2910648  88.2918739  43.1248713   3.6913583  87.6850319
  43.2977200   3.2993639  89.1367340  17.5874686  68.8479185  82.7715969
  17.0171571  69.3710804  83.3348656  17.0980549  68.0393839  82.6200104
  95.1257801  85.0321770  71.8295336  94.9924850  85.2842331  70.9157896
  96.0391903  84.7487068  71.8689919  89.5882225  75.9770584  71.0254765
  89.3057537  76.0990143  70.1190710  89.6956348  75.0303745  71.1175632
  91.5738297  81.1643410  15.1626837  91.7683697  81.8672276  15.7826233
  92.1662140  80.4548073  15.4114449  98.5026741  80.2168751  69.5616865
  98.3307076  79.2799425  69.6555328  97.8641129  80.5138302  68.9133835
  74.1957712  48.7358093  20.0686693  73.5996580  48.2354879  19.5113885
  74.6980095  49.2755795  19.4582272  36.4055800  -0.2506539  56.8113708
  36.2918687  -0.3994843  57.7500677  36.4847612   0.6995613  56.7273855
  16.1025143  62.9088593  45.8859301  16.1081541  63.8453722  45.6880999
  17.0277882  62.6711607  45.9459400  68.5139847  80.1054668  17.4544287
  68.9784002  80.6774807  16.8434060  69.1714478  79.8702288  18.1091309
  83.9855385  87.3325825  30.0932765  83.7388992  86.4108372  30.0173187
  84.2507648  87.5832653  29.2083764   1.4548180 100.8403111  54.8272610
   0.5681705 101.2000561  54.8531914   1.3330686  99.9196720  54.5952272
 101.2323093  69.4521523  46.5284157 101.9801998  68.8857841  46.3383722
 101.1450768  70.0028276  45.7503605  97.2563267  69.4843006  79.1276312
  97.9438019  69.0782833  79.6556091  97.7246284  69.9017763  78.4046888
  99.8748016  65.7515574  13.6160755  98.9503098  65.8299494  13.3807218
 100.2734756  65.2983284  12.8731918  95.8219147 105.5031681  57.3922634
  96.4344788 105.7863045  58.0711174  95.0504017 105.2060223  57.8746557
  99.8836231  72.5702477  73.9308929 100.3026295  72.8844261  74.7321177
  99.8437786  71.6199207  74.0382338  89.5860195 100.6784916  22.9349709
  88.6551285 100.4644394  22.8729105  89.6048737 101.6231918  23.0880046
  85.1132965  92.2467995  44.1232967  85.5394650  92.5541782  43.3232164
  84.2123890  92.5620556  44.0510845  18.6491859  82.8356171  38.2646561
  18.0062103  82.6104927  38.9370608  19.1140318  82.0164680  38.0939364
   0.3243715  90.9958363  44.0389013   0.2026058  91.6135883  43.3179379
   1.2735590  90.8946705  44.1099024  98.1604481  89.6344566  45.6388378
  99.0132141  89.3255043  45.3329420  97.5436974  88.9631367  45.3469658
  83.0704117  35.9328508  82.9911232  84.0055656  35.7287240  82.9980946
  82.9851151  36.6852045  83.5767269  94.6202183  67.6951885  62.4941921
  94.8507881  68.5210514  62.0687294  93.7784576  67.8695107  62.9152393
  43.4579802  87.1009159  85.3611279  43.8774252  87.6955318  85.9829998
  44.1221285  86.9503689  84.6884632  76.7883682  13.4456813  91.1197758
  77.5912523  13.2809711  90.6253338  76.4215040  12.5757623  91.2775230
  55.7299709  77.1002579  61.9283867  55.7118940  77.0695257  60.9718513
  55.9049177  76.1973715  62.1937704  98.2788944  82.4257374  39.9044490
  98.6480236  81.7187214  40.4336929  97.7718163  82.9495525  40.5247068
  34.1178346   5.5704457  37.4630308  33.5476208   5.3635281  36.7225766
  33.6381936   6.2361568  37.9559875  85.0859165  55.4051876  53.8763952
  84.6141720  54.7910595  54.4390106  85.6176662  54.8487139  53.3073521
  91.1297607  91.8321609  27.6787090  91.1148453  92.0423126  26.7449832
  90.2294350  91.9748497  27.9707432   9.9306715  80.2600765  12.4734032
  10.8388615  80.4658031  12.6949823   9.6588790  79.6283865  13.1392360
  79.9067497  53.7942362   3.2231003  80.1420498  54.7050238   3.0460978
  80.6963921  53.2970572   3.0097827  99.6975803  88.1291676  43.5231161
 100.4871655  88.6694336  43.5531759  99.3981647  88.1928635  42.6161861
   6.5545130  74.0329075  38.9131236   5.6783724  74.3965864  39.0409923
   6.5173572  73.1688070  39.3232226  16.2274230  84.8351860  37.7155566
  15.2926147  84.7582340  37.9064631  16.6383433  84.9487495  38.5725760
  47.4226427  94.1956711  19.0612626  48.2425356  93.7036037  19.0179801
  47.4423790  94.6189690  19.9195492  88.5925865  84.1060162  63.9379406
  89.1309929  83.3148575  63.9586210  88.8976002  84.5831966  63.1662560
  91.9680023  95.0374985  57.4042606  92.6078129  95.0600052  58.1158495
  92.4060345  95.4752636  56.6743851  99.9789333  69.3791819  28.9763618
  99.3499851  69.2448092  28.2674217 100.0964642  68.5102177  29.3601775
   9.6863574  36.5041566  59.5190144  10.5997968  36.4105487  59.7893763
   9.4467330  37.3910713  59.7877073  26.8864799  73.0144358  51.8161535
  26.3062954  72.2540140  51.7790270  27.7538419  72.6640558  51.6133022
  91.4860344  99.0341949  36.1766863  91.1779022  98.1690788  35.9067512
  92.3897743  99.0749073  35.8639288  37.7231884 100.4400730  21.8004870
  37.7584529 100.2752781  20.8582377  37.3296618 101.3092709  21.8770576
  88.5536194  69.3445921  55.5881977  89.1735363  69.7441959  54.9780798
  87.7061749  69.7196198  55.3485394  84.5035934  74.1638136  45.4679585
  84.5853233  74.7579670  44.7219467  85.1716995  74.4613886  46.0854721
  27.6498294  77.4792910  15.3171813  27.3600268  76.7479563  15.8625221
  27.1567035  78.2318211  15.6439185  84.6695709  74.3533134  63.4853411
  84.8323631  73.4490538  63.2169247  84.2440701  74.7550917  62.7278757
   3.2852250  83.5973930  53.3240604   2.9032034  83.5205650  54.1983509
   2.8217077  84.3331146  52.9239511   5.3429615  82.9614544  37.5053501
   6.2555093  83.1526566  37.2887158   5.3802371  82.1404171  37.9960036
  12.4225521  81.6529274  45.5411196  12.4858081  82.3939228  46.1437464
  13.3240128  81.4943886  45.2610016  74.5439434  78.2945871   9.7330201
  73.9498568  77.9019499   9.0933883  75.2802181  77.6848793   9.7818720
   3.2617408  70.0934076  57.0621681   4.1119087  69.6541691  57.0848322
   2.7286297  69.6163130  57.6980925   2.2524576  60.5762863  41.5667820
   2.2414152  61.2944317  42.1995354   3.1236866  60.6178474  41.1724901
 112.6721478  52.5687170  20.7537270 111.8983173  52.6134777  20.1921010
 112.5129890  53.2236290  21.4334249  87.8023052 103.2253265   9.7968608
  88.0711079 104.1317844   9.9462235  87.7082062 103.1568623   8.8467616
 111.9040775  71.0576296  52.5742340 112.2333145  71.9216967  52.3268032
 111.1007404  71.2381697  53.0623627 108.5184288  74.1842794  49.1711855
 108.1021881  73.6664867  49.8603010 109.4259453  73.8802052  49.1581726
  99.8505878  75.8538866  39.1568065  99.3846321  75.2596378  38.5686016
  99.5569611  75.6030083  40.0326347 108.2215595  81.9204044  60.3645563
 107.8750610  82.2427559  61.1965799 107.4986553  82.0276833  59.7463942
  95.9910870 103.4323025  37.0809817  96.0541534 102.6253891  37.5920033
  95.1043701 103.4189510  36.7207170   8.0301905  81.4962292  17.1853876
   8.3037382  81.9830132  16.4079261   7.4107182  82.0776367  17.6263452
   8.9395440  89.4750023  56.0927105   8.8221312  88.7503529  55.4784441
   9.6418071  89.1843510  56.6745853 104.7446251  58.2493448  16.4800775
 104.1454792  58.7796402  15.9546793 105.6108475  58.4381390  16.1191761
 108.1521988  61.0940695  48.5339975 107.6227283  61.2194872  49.3214989
 107.8604889  61.7830801  47.9370022  81.0862541  54.9343300  49.1441774
  81.7456341  54.2881203  48.8914776  80.5130863  54.4667006  49.7516584
  91.0694599  97.9705143  38.5873508  90.8794689  98.8006210  39.0244603
  91.0862732  98.1888485  37.6555347  90.3676128  72.7963448   4.8577327
  91.0848522  73.2577467   4.4230968  89.6691799  72.7691269   4.2037567
  22.2772479  13.8991296   1.1867081  21.5620923  14.4883323   1.4267620
  21.8458438  13.0691373   0.9836429 108.4941673  96.3288689  30.6579351
 108.7399101  96.9347095  29.9587941 109.2627335  95.7697201  30.7714677
  93.5409641  71.2884951  51.3409042  94.0994453  71.8812847  51.8438244
  93.4660149  71.7019987  50.4808855 109.8781967  88.5100460  29.8253632
 110.6236839  89.0736771  29.6184778 109.9437523  87.7874279  29.2010546
  92.0310402  62.6354361  52.4879885  92.6866817  62.2548628  53.0724001
  91.6982460  61.8921375  51.9850063  94.2014313  59.6304417  34.5958734
  94.9657917  59.1326237  34.8859930  94.5674324  60.3720379  34.1138887
  29.9602723   2.3664840  28.4342313  29.6613336   2.0374075  27.5865436
  29.4488907   3.1631589  28.5757542   5.2258086  83.0230713  58.3612776
   5.5711186  82.6791954  57.5374222   4.5802674  82.3736191  58.6400652
  90.1593304  49.0219355  52.9013014  89.6486282  48.6550999  53.6229944
  91.0206509  48.6128902  52.9852200  59.9168158   4.3964899  20.4923463
  59.4637728   5.0019115  19.9054515  60.2608776   3.7152395  19.9146330
  98.3393288  66.0472059  35.8233523  98.2644844  65.0932646  35.7982564
  97.4402714  66.3606596  35.7249880  12.4436629  74.7294474  19.8819995
  11.7838573  75.4223490  19.8541558  12.9996204  74.9579144  20.6269455
  92.3643780  54.3092012  29.2422652  92.9907513  54.1368628  29.9452472
  91.5078068  54.1614580  29.6431422   9.6189439  94.0796947  20.3721023
  10.1522279  93.9556026  19.5869660   9.2314184  94.9481964  20.2636194
  78.2442951  74.5554113  40.0991774  78.6787271  75.3854847  39.9030066
  77.9193974  74.6605873  40.9933853  82.3538208  85.1112747  53.5636854
  82.1659756  84.1783714  53.4605646  81.9998646  85.3330994  54.4249344
 107.2321701 102.0099354  54.3500519 106.7945862 102.8497791  54.4893551
 107.9806328 102.2195816  53.7914181  96.6134644  34.7662640  66.3383961
  96.1186409  35.1173258  67.0787573  95.9617710  34.3014002  65.8135939
  96.7334938  59.5376778  70.9017324  97.6344967  59.4304514  71.2065554
  96.8180847  59.9682188  70.0510216  60.9655285  75.1739168  72.7527571
  60.1067114  75.5952835  72.7862072  60.8933878  74.5394087  72.0397186
  88.9819050  60.3133678  41.2491322  88.9075851  61.1422539  40.7762098
  89.6072292  59.8006296  40.7369709 100.0750160  51.5962934  36.3155293
 100.1326466  51.3639879  37.2423220  99.2188835  52.0149899  36.2263393
 103.5749245  99.9868011  47.5264883 102.8007984  99.8890495  48.0809307
 103.6135674  99.1733074  47.0235300 101.6642284  72.0900345  69.6328592
 100.8484745  72.0128489  70.1276445 102.0429611  71.2112713  69.6568346
   4.0652865 100.8551311  42.0424986   4.8293942 101.3624477  41.7686415
   4.4161636  99.9909782  42.2578287  97.9005623  85.7462311   7.5373304
  97.0007229  85.6163406   7.8367478  98.2627964  84.8622894   7.4768019
  93.0683136  96.4332390  55.4000521  92.5609493  96.6568089  54.6197748
  93.8069439  97.0419502  55.3879976  11.5753353  86.4502335  53.8634539
  11.5741801  86.2348652  52.9307985  12.3055410  85.9475327  54.2244530
 104.3328857  68.0776262  52.2659969 104.1772175  67.3340750  52.8483486
 103.4949303  68.2154846  51.8243456 102.6853943  78.1387901  50.2417421
 103.4626389  78.1253958  49.6832228 102.1114540  78.7897396  49.8379040
  99.2067528  78.4373474  33.7382174  98.3866882  78.9309216  33.7493229
  99.7595310  78.9053774  33.1124330  11.8570673  50.4354000  45.4351997
  12.6911962  50.9040308  45.4061222  11.5886962  50.3670120  44.5189428
 101.3828278  76.1718988  47.1047831 102.1169567  76.6973352  46.7866659
 100.6055355  76.6181087  46.7686987   7.0863032  23.1408763  12.7223206
   6.3054991  22.9905367  12.1894276   7.8089833  23.1373024  12.0946646
   6.9074351  89.5824623  26.1721802   7.0088816  88.9703941  25.4432678
   7.7826703  89.9476719  26.3018441  81.7951488  18.4982252  25.1924753
  81.7918110  17.5412023  25.1743627  81.9086552  18.7547064  24.2772913
  91.8317795 101.7371273  33.1864047  91.4563560 100.8591652  33.2533240
  91.2477875 102.2877312  33.7079620  12.1707189  99.7941017  47.0754242
  11.5972805 100.4445171  46.6700125  12.0588267  99.0089226  46.5395021
  23.4564376  26.3076520  61.2212706  22.6845765  26.4021993  60.6631327
  24.1976571  26.4108610  60.6244707 110.0020123  99.2958164  59.8110342
 110.6882763  99.4885159  59.1721725 110.4762650  99.0408802  60.6024408
  94.8384190  96.8752480  38.2615995  94.5524979  96.1760998  37.6736736
  95.6808758  96.5731621  38.6010838  93.2673073  98.3762169  84.4737530
  93.2243061  98.9041328  83.6764622  94.1436386  98.5397911  84.8223495
 101.1433220  85.7513523  48.4847641 101.3881874  85.2796268  47.6886749
 100.8351040  86.6024780  48.1736183  31.5180349   5.4986477  68.2286215
  30.7768106   4.9809417  67.9142952  31.1242414   6.3089168  68.5520744
 106.9571590  80.7643318  43.3324575 107.3255634  81.2935448  44.0398788
 107.3150826  81.1505032  42.5330877 107.1029472  82.0360184  34.4338012
 106.7734909  81.5159416  33.7008619 107.9956341  81.7187405  34.5704699
  15.0980175  77.9039764  41.6263342  14.5795405  77.4259472  42.2735643
  14.4705617  78.1381989  40.9424686 108.6562252  88.9184189  51.7727661
 108.1756878  88.1613636  51.4378071 108.0685806  89.6594810  51.6253424
   2.0223105  90.9386253  63.6817122   2.9128370  91.2209129  63.4731245
   1.5677041  91.7437172  63.9295006  86.9846153  96.8176079  45.7226944
  87.5324249  97.4836731  45.3073835  87.4661350  96.5694427  46.5118599
  98.0657482  96.2405205  75.1478815  98.6437988  96.1649704  74.3886852
  97.3161316  96.7431831  74.8290777  99.5216084  93.8012981  46.4312220
  99.6030807  93.3939552  47.2935867  99.9435806  93.1838036  45.8338308
  34.8980021   8.9072078  56.2619972  34.1136169   8.8682806  55.7147741
  34.6453619   9.4566047  57.0039988  93.7418842  79.0535498  60.4467440
  92.8812599  78.6731339  60.2711201  93.6875534  79.9418306  60.0942659
   5.8346295  80.5137920  38.5828328   6.4180666  80.0139999  38.0118346
   6.2909305  80.5444908  39.4237113  65.7316160  68.7663507   8.8520545
  66.0984087  67.8840494   8.9090109  66.4230537  69.2872763   8.4436595
  94.5955372  50.5253363   4.0306565  94.9829197  50.3237009   3.1788903
  94.5871258  51.4817095   4.0695912  50.4233742  86.9583893  50.3730392
  49.7638607  86.2854385  50.5416250  50.0719976  87.7469826  50.7864094
  16.4376473  87.6351738  74.8923826  16.0524750  86.7766476  75.0679255
  16.8987119  87.8605747  75.7003689  77.1653175  83.7446880  52.7329540
  76.8044710  83.3717632  53.5372829  76.4197159  83.7899399  52.1344042
  87.7313519  62.7077484  44.6405792  87.4877739  63.1552744  43.8302565
  87.9115772  63.4149742  45.2599144  91.8816471  87.0072842  48.3887911
  92.2060680  87.4020767  47.5793982  90.9288406  87.0667744  48.3191490
  86.0905647  68.5545397  60.3841591  86.0449028  69.5106459  60.3803205
  86.7753410  68.3449030  59.7490549 101.5748024 100.6700993  15.7038462
 100.6235027 100.7440567  15.7799971 101.9155884 101.2801361  16.3580251
   4.9257508   7.5035590  47.5449514   5.0589877   6.5978426  47.2653818
   3.9820379   7.6424497  47.4652815 106.8947220  87.4256039  85.5779171
 106.6232586  88.1873322  86.0900784 106.2547970  86.7486191  85.7979488
  15.0007141 103.6608505  82.5957966  15.7402396 103.8737583  83.1650066
  15.2291095 102.8137016  82.2131634  27.1532226   5.9922135  55.9928322
  27.0688796   6.5377504  56.7748213  27.3496795   6.6108149  55.2892923
  31.9845700   1.4163385  38.7854743  32.6842809   0.8342342  39.0817714
  32.4346781   2.0955610  38.2831883 101.1448669  71.1070728  44.4865370
 101.4958286  71.0602236  43.5972357 100.9620476  72.0366621  44.6232128
   0.0144597  72.6476860  66.0906219   0.3287469  72.5694990  65.1898766
   0.7017504  73.1372881  66.5424538 107.1207714  73.3719635  75.1309538
 106.2045765  73.0961752  75.1034355 107.6181793  72.5554800  75.0844002
  48.9272404  96.7964554  33.9204478  48.4204435  97.5125599  33.5375762
  48.5174370  96.6412830  34.7714543  95.4915237  82.0666313  44.7094536
  96.4128590  81.8477726  44.5698977  95.1423931  82.2057533  43.8291216
  29.9487676   0.2223748  34.2670751  30.0415220   0.4201955  33.3351421
  30.7281770   0.6033868  34.6715283  49.3997002   0.8419807  37.0545030
  49.6561337   0.3900387  37.8583813  48.5351801   1.2041089  37.2486758
   6.8972749  78.5445976  28.2122707   6.2952662  78.2319927  28.8876176
   7.7595681  78.2495308  28.5048699  91.1587620  82.5135517  46.1502934
  92.0787907  82.5969124  46.4009476  90.6830025  83.0084419  46.8173552
  77.7097130  73.5478878  81.6258717  77.9830027  73.5948992  80.7097244
  76.7718029  73.7380505  81.6060925 100.3507423  77.3846483  53.6152601
 101.2835598  77.3596954  53.4020185 100.2952385  77.0046568  54.4920492
  83.3337593 102.3646736   0.9122257  82.4441910 102.6839828   0.7607420
  83.5636425 101.9042397   0.1051418  21.0393906  95.7594681  86.4028358
  20.7709527  95.9434891  87.3030090  20.2431560  95.4443359  85.9751320
  98.2051754  88.8820839  55.8779621  98.6101532  88.0649471  55.5872440
  97.5271130  88.6070442  56.4950657   2.8489026  14.4454396  53.9613438
   2.1345182  15.0626314  54.1193342   2.4238434  13.5881293  53.9373493
  30.9777045   1.8326491  84.4688797  31.3896132   2.1534334  85.2711678
  30.6458640   2.6205838  84.0384483   2.0867884  62.9781914  42.8636932
   1.7616731  63.4363365  42.0886898   2.6623920  63.6115074  43.2924366
  78.5721684 102.9738808  40.9896278  79.0257978 103.7250519  41.3719749
  77.7871656 103.3468914  40.5885506  84.9173641  98.0475712  36.9491816
  84.3947411  98.4626770  37.6353121  84.6269321  97.1354961  36.9456363
  93.4246159  86.3579941  50.6417322  93.9398289  87.1595764  50.5508900
  92.8245068  86.3732052  49.8961592  26.9471669  89.8884964  35.6951261
  26.2998581  90.5914688  35.7503438  26.5973282  89.1961765  36.2559605
   6.7412257 101.2897015  56.6284132   6.0770494 101.7161942  57.1698952
   6.8252867 100.4115105  56.9998312 109.5239067  90.5011177  17.9772294
 109.7943687  90.1473522  18.8245356 108.5836887  90.3268909  17.9340363
  74.8892260  19.3849897  61.5580797  75.7104635  19.6818244  61.1660433
  74.2198515  19.6121407  60.9126568   2.3439127  69.3346357  82.9332542
   1.7510769  69.0155935  83.6136913   1.8299638  69.2887831  82.1270370
  40.6291914 102.7158642  56.6190004  41.5782690 102.5958920  56.6520119
  40.4928684 103.6232948  56.8914509  33.4330177   0.3003624  42.2326088
  33.5406923  -0.1439118  43.0735970  32.6005173  -0.0281000  41.8930674
  44.9290848  16.8493223  61.9591761  45.3462934  17.5311828  61.4326477
  45.6556988  16.4087987  62.3998642   3.9930362 103.5848236  15.5159175
   3.6749184 104.3089104  14.9767208   4.9429879 103.5986042  15.3991544
  52.9247856  34.2844725  49.0963364  53.6005306  33.9221025  49.6692991
  53.2021761  34.0388942  48.2137394  70.5576611  86.8584824   2.1765976
  70.2168226  86.7553234   1.2881050  71.2644148  86.2158775   2.2381233
  80.0055408  11.8002939  15.6214440  80.7560539  11.8582344  16.2127149
  80.2590179  11.1397970  14.9766779   4.4166112  80.3050709  20.8109021
   4.9475467  81.0835361  20.9792352   3.7244475  80.6095505  20.2240181
  56.4658499  18.2382321  48.6181402  56.6456652  17.3496854  48.9253569
  55.6358576  18.4719718  49.0337229  91.8153381  19.0246987  40.3067350
  91.6697884  18.1147838  40.5657768  91.8102837  19.0050244  39.3497515
  53.3683634  43.3179522  87.6558018  53.9686203  44.0609169  87.5931644
  52.9025745  43.3151960  86.8195820  35.8469415  92.7281761  57.0781755
  34.9626994  92.9876804  56.8193197  36.4160180  93.1274700  56.4201832
  37.3805881  72.2193336   8.7090576  37.2098374  73.0514145   8.2677937
  37.0400023  71.5557671   8.1091297  28.3650136 103.5766983  24.0665150
  27.7553034 103.7404823  23.3470273  27.8142595 103.2480431  24.7770691
  29.0064478  84.5980358  47.3311377  28.3360171  85.2788544  47.2742081
  29.5299506  84.7104549  46.5377045  56.6772556   5.6986904  34.4046831
  56.2672615   6.5445846  34.5852423  57.2489452   5.8647454  33.6551309
  14.6391654  98.9861965  51.4624977  14.2986929  99.5875072  50.8001232
  15.4695475  98.6766243  51.1007500  26.9316268 102.5014305   4.5935026
  26.9128346 103.2346535   5.2085388  26.6944861 102.8892708   3.7511376
  82.5893784  26.0527658  36.1852551  83.0427265  26.3751173  35.4062843
  81.7033958  26.4073253  36.1106610  29.5617199  95.1205254  14.3446958
  29.3957114  95.4215240  13.4513438  30.0717449  94.3178368  14.2361021
   2.0213197  88.0127144  29.8838162   2.9382887  88.2560253  29.7565436
   2.0418198  87.3585987  30.5823517  36.2991228   0.0096864  52.2489834
  37.0594301   0.4422063  52.6376867  36.2873640   0.3154058  51.3419962
  18.2053816  71.4097977  42.2916460  18.5286129  70.6955147  41.7425013
  17.4390709  71.0441971  42.7336168  55.7881403   7.6256573  53.6672783
  55.6050968   8.4607941  53.2368422  56.7389345   7.5305104  53.6109734
  20.2846813 100.1525211  55.7388735  20.8174253 100.9287071  55.9119272
  20.6379414  99.4838524  56.3256645  70.2065563  72.9658222  78.4718990
  69.8941612  73.3267641  79.3015718  69.4337797  72.9601336  77.9070807
  69.5063503   0.3188962  11.5353000  68.9239271   0.9825296  11.1657023
  69.1416104   0.1355046  12.4010742  27.2730851 104.3368340  29.4008565
  27.3459387 103.4331989  29.7080684  26.9786000 104.2583084  28.4934711
  79.1092157  18.1644285  61.9851017  79.9561119  18.5575545  61.7742586
  78.8365936  18.6012995  62.7919769  60.2637672  85.9294319  20.9706044
  59.8705626  85.2518559  21.5206194  61.0669947  86.1745167  21.4299345
 103.9460373  87.7522087  26.3501334 103.7010956  88.2678890  27.1184492
 103.6452579  88.2736206  25.6058884   6.3791454  61.4547539  90.5006695
   5.4341161  61.5736389  90.5956268   6.5038902  60.5058384  90.5158329
  28.7610269 100.0666428  26.4934468  28.3251739  99.3233490  26.9103026
  28.1260824 100.7805061  26.5524769  70.7413006  18.5756373  40.2572060
  70.0228310  18.9240575  39.7293448  71.0843325  17.8451562  39.7424650
  98.2670593  59.0135193  82.4632454  97.6793766  58.2590008  82.5026894
  99.1413975  58.6425781  82.5822353  67.9950476  27.9662085  34.5515060
  68.0267906  28.0096865  35.5071902  68.5184908  28.7128139  34.2602634
  65.8376741  21.9142818   8.1954253  66.4562654  22.4273300   8.7153900
  65.1287985  21.7055202   8.8038212  34.6913600  98.0543900  20.3490400
  34.4396925  97.4547958  21.0514498  35.1485515  97.5020123  19.7149336
 104.5867062  57.2017193  87.9413509 103.8384438  57.7928114  88.0246449
 104.2078114  56.3771105  87.6369095 108.4944248  74.1718435  53.9484644
 108.8483429  73.9480019  54.8092031 108.2978821  75.1068687  54.0060854
  38.7826943   8.3036262   6.4794129  38.0507421   7.8220916   6.0939193
  39.5084906   8.1632847   5.8713394  56.3015604  23.8189483  20.9563732
  56.5492392  24.7302508  21.1126280  55.3669167  23.7864232  21.1603546
  74.0014458   2.8187919  69.4989157  73.7452459   2.3956960  70.3184223
  73.8343668   3.7495205  69.6474504  45.8276081  72.9134178  31.8150735
  46.3704634  72.6626730  32.5625134  46.4425421  72.9820347  31.0847449
  70.6566048   5.0736111  26.9509125  71.0696936   4.2504033  27.2115278
  69.9294758   5.1813400  27.5640273  18.2807486 105.7771923  19.1525447
  18.0118220 105.7524425  18.2342315  18.3576052 104.8569495  19.4044936
  19.0905416 102.6423359   8.2438338  18.1464207 102.7602196   8.3485729
  19.4734251 103.0978584   8.9935881  89.8917389  54.1460752  82.5649261
  90.3390408  54.3011284  83.3968639  88.9809418  53.9823008  82.8095818
  34.2427659  81.3677502  38.7728119  33.3521962  81.2621975  39.1074371
  34.7938299  80.9156227  39.4116688  85.8122730  60.0390768   2.0130010
  86.1281872  59.4009399   1.3733026  86.5644550  60.1994610   2.5828594
  85.1978302  12.7064157  24.8723340  84.7276020  11.9618738  25.2475405
  84.5317459  13.3872986  24.7776628   8.7579530  43.1818485  89.9083614
   8.3964097  42.6710081  90.6326294   8.0574161  43.2020807  89.2563915
  58.5170603   7.8230125  63.2306385  57.7883244   7.8079218  62.6101971
  58.1554651   7.4486363  64.0339613  41.9683599  94.3555737  35.2359581
  41.6274643  95.2499962  35.2296615  42.3936367  94.2553425  34.3842983
  60.4307747   1.7214683  19.5391428  60.4527664   0.7760996  19.3907309
  59.7642326   1.8423019  20.2154231  94.5435619  79.1674042  20.1503825
  93.8410091  79.3160295  19.5174825  94.1048241  78.7832594  20.9094405
  34.3306279  97.1861362  39.6721697  34.7698879  97.3989010  38.8487506
  34.3798494  96.2319756  39.7303081  13.4228754  81.7389488  38.3525491
  13.9331627  82.3241520  38.9123487  12.5268841  81.8145084  38.6807585
  60.4420662   4.7804120  73.7820053  60.4240417   3.9661267  73.2791662
  59.5832109   4.8212138  74.2026424  45.4098749   3.7000456  43.7167549
  45.4017019   4.6427983  43.8822317  46.3372612   3.4806651  43.6269522
  23.3292699  83.4099102  52.3748112  22.5659823  82.8344059  52.4240017
  24.0736055  82.8139210  52.2912073  66.6013670 100.0171375  18.9331746
  66.0743284  99.9305916  19.7275102  67.3084927  99.3816757  19.0444970
  57.5235415  30.4742694  32.0436502  58.3693743  30.5039167  31.5965223
  56.9848251  31.1152577  31.5798068  79.9996710  26.7130589  44.6476936
  80.1232719  26.3892817  43.7554359  79.0815735  26.9819212  44.6798992
  60.1433420   3.0595222  25.2962661  60.3445435   3.8427055  24.7840405
  59.3129778   3.2619846  25.7272339  94.5122910  37.7736354  27.6017499
  95.1114750  37.7368712  26.8561935  94.1657734  38.6657858  27.5867724
  86.6499424   5.6118172  28.7843180  86.8696308   6.4256501  29.2378020
  86.0144043   5.1825243  29.3570566  10.4002368  31.0371733  24.3524456
   9.8547894  30.2508354  24.3326759  10.9265625  30.9436774  25.1464677
 106.5879631   0.1673221  38.3227897 107.4639797  -0.1547059  38.5352254
 106.3851547   0.7887827  39.0219927  68.2582903  26.4118195  38.1852365
  68.2380772  27.3459983  37.9775453  67.4382830  26.2525797  38.6526394
  38.9096761   8.9387423  40.9634256  38.6157560   9.3126106  40.1327276
  39.7803783   9.3123668  41.0994911 109.7210979  87.1503448  18.4503925
 109.6652222  86.8499374  17.5432718 108.9690399  86.7462826  18.8832593
  59.2922354  13.3847976   7.3739511  60.2432060  13.3822691   7.2649539
  58.9780045  12.7295232   6.7509687  77.9042196  20.3466868  35.4839420
  78.2834768  20.6696653  34.6665812  78.5925484  20.4784989  36.1359072
  52.6060867   4.1525745  31.8472624  52.5790071   4.7503230  31.1001396
  52.3888445   4.7012132  32.6009417  95.2384186   5.8780140   8.0816245
  96.0877037   6.1734879   8.4097266  95.4522038   5.2038395   7.4366313
  21.7589569 103.6304665  44.2102766  22.5241613 103.2420921  44.6343708
  21.0148644 103.3142567  44.7226906  44.9385691  77.2534847  20.9433937
  44.0377522  77.2017765  21.2629032  45.1160049  78.1918144  20.8779573
  98.3038807  99.5494270  36.0513783  97.9820251  99.7048283  35.1634073
  98.9781189 100.2162075  36.1818719  59.6979332  15.1095831  60.7470703
  58.8735723  15.3883970  61.1457205  59.4660282  14.3357396  60.2336359
  27.8436685 103.6302090  42.4010944  28.6233330 104.0709400  42.7388906
  27.1270704 104.2381191  42.5831985  45.4418564  49.2075586  13.6229610
  45.7072496  49.6374083  12.8099251  44.9360180  48.4466982  13.3375597
  53.0408525   8.1865400  65.1643276  53.5581493   7.5062907  65.5954885
  52.3849964   8.4371817  65.8149147  80.6989956  32.9634428  16.2876153
  79.9526882  33.5346723  16.4691556  81.4327335  33.5633397  16.1534941
  18.3262968  93.2370663  47.6330042  18.7740982  92.7498341  48.3246040
  19.0036988  93.3977222  46.9760847  58.5098267  20.0454617  20.0784636
  58.9293385  19.9152517  19.2280018  57.8698063  19.3364382  20.1408839
  58.7718487  21.8764901  46.6092205  58.8616705  20.9238577  46.6348028
  58.4375286  22.1088886  47.4755096  42.9496956  64.1285133  17.6999664
  42.1174002  63.7545776  17.4106801  43.5354471  64.0171814  16.9511437
  39.3316865 102.2438431  30.9623170  39.8779440 102.3949814  30.1909590
  38.4704375 102.0247364  30.6066871  54.9584103  95.3723621  28.1901336
  54.1417074  95.7422638  28.5253954  55.0847864  95.7995033  27.3428965
  84.1709137  36.5080738  64.5688963  84.4403076  35.5896497  64.5813036
  83.8089561  36.6633081  65.4413176  87.8457928  62.9191875  85.0063801
  87.7680588  63.1523085  84.0812683  88.2586670  62.0556259  85.0019073
  69.3690109  23.2409000  38.7063766  69.7671604  22.4044132  38.9471984
  68.9795399  23.5635591  39.5190501  22.8961897  92.3180389  22.6789713
  23.8040137  92.2759914  22.3784399  22.3831844  92.4222183  21.8775964
  79.2373180 100.8358192  44.4053078  79.4309044 100.6886578  43.4795094
  78.9983749  99.9715996  44.7403526  65.4493666  14.7224808  15.1418531
  65.8665419  13.9189565  14.8311353  66.0533476  15.0669920  15.7996929
  99.3710995   5.1116824  30.6558299  99.9021530   4.6715152  31.3195038
  98.4704113   5.0095385  30.9633493 107.3913193  66.7597580  89.0445328
 108.0962372  66.1738491  88.7687778 107.8150082  67.3830652  89.6346283
  82.1560192  16.6989911  60.4058218  82.1074772  16.8574464  61.3485670
  81.7603779  17.4763525  60.0116062 104.8495579  27.7821994  41.5442657
 104.0955448  27.2954988  41.2113762 104.4845200  28.6158323  41.8409777
 110.6211853  79.6557331  88.5401154 110.3353214  78.7447309  88.6078453
 110.6363201  79.8327112  87.5995445  49.7597313  96.8385220  20.2397537
  49.9420500  97.5078869  20.8992505  48.8044500  96.7861366  20.2093816
  73.6583614  20.8494473  30.8391190  73.2944250  21.6916752  30.5662918
  73.3324718  20.7251740  31.7305136 105.0815868  41.4924288  85.0419903
 104.9812698  41.2895489  85.9720516 104.3086243  42.0140362  84.8259068
  69.9804068  89.9279404  23.0328512  70.7613134  90.4781151  23.0938125
  70.3067493  89.0820217  22.7259970  63.1956339  15.7222462  42.5141001
  63.5281134  16.5622127  42.1976423  63.8547564  15.0848651  42.2392607
  65.6759405  24.1771913  50.2730179  65.4489088  24.3119216  51.1930943
  66.6127539  23.9809775  50.2837372  69.6119783  49.8642843   0.1944527
  69.4821260  50.3548257   1.0060867  70.1639268  49.1243284   0.4475102
  39.6313453  99.7940445   6.7172027  40.2509022 100.4346180   6.3678467
  38.7699628 100.1669121   6.5295202  66.4126158 103.5208321  20.1153302
  66.3828754 102.8302383  19.4531977  67.3048353 103.8636684  20.0639272
  50.8315277  13.2460213  72.8803968  51.1904955  13.7795389  73.5894299
  51.5836906  12.7605927  72.5415134  60.4737282   6.1541098  24.4608665
  60.5640411   6.6941851  23.6757588  61.3238478   6.2197977  24.8958564
  11.5277743  97.0756817  85.5503273  11.7456353  96.1643791  85.3546333
  10.7918704  97.2755623  84.9717712  66.7644215  33.1441593  41.5161467
  66.5736628  32.8561759  42.4088430  67.7124643  33.2757258  41.5043545
  51.9515610  15.1835144  37.6760244  52.6018333  15.5528963  38.2734680
  51.7335081  14.3323874  38.0558515  71.6812944  32.0395088  17.1797526
  72.1101236  32.8948069  17.2080362  72.0334816  31.6208553  16.3943076
  82.1228409  31.1176348  31.1171317  83.0225563  31.1571050  30.7928085
  81.8596649  32.0336986  31.2054229  70.3000355  13.9444256  21.2791252
  69.7694111  14.5776510  21.7625475  71.1849689  14.3087471  21.2990022
  47.4402380  40.9753466  23.8414669  46.8567181  40.4459190  23.2979202
  48.3173084  40.6501675  23.6384130  45.1026487  57.7222061  24.5123458
  44.6727848  56.8673658  24.4859147  46.0071993  57.5279427  24.7578573
 106.4662933  20.6335425  29.7127151 107.1604061  20.7188416  30.3662896
 106.9237614  20.3904414  28.9078188  91.9938564  20.8477068  49.9615574
  91.8418694  21.5161347  50.6296396  92.8154755  20.4313087  50.2219200
 105.6124687  10.6397176  43.6939716 105.4493427  11.0692930  42.8542757
 104.7516060  10.5918539  44.1097450  27.1143794  78.7412071  24.7617841
  26.4731741  78.2380056  25.2636552  26.8569112  78.6141777  23.8486552
  61.4137888  83.9820099   1.7557305  60.9755325  84.5426750   1.1155552
  62.3241901  84.2775822   1.7494687  87.5979042   9.3314207  41.8225384
  86.9583416   8.6479038  42.0225096  87.4961758   9.9688119  42.5293732
 109.4125175 103.2560921  21.9357061 110.0785542 103.2295132  21.2487364
 109.3786430 104.1751671  22.2010279  49.5030832 103.7873554  38.9600515
  48.6414003 103.7782478  38.5433459  49.9326944 104.5654869  38.6048317
  43.4347630  90.6963348  25.9486961  42.5831032  91.0693932  25.7212377
  43.9661217  91.4504719  26.2039733  50.0609255  41.1023521  11.7793548
  49.6937418  41.3787603  10.9397078  50.8090258  41.6835070  11.9165647
  24.6274042  86.9024277  28.8008761  24.9595499  87.3632526  29.5712996
  25.4099989  86.5517712  28.3756518  49.7502089  96.5519047  52.3810482
  49.2657280  95.7435036  52.5483608  50.6417227  96.3616371  52.6729918
 108.4212685  31.9392824  11.7867720 108.6563396  32.8549623  11.6367710
 108.8616180  31.7099214  12.6051331  64.9804354  14.0931189   4.1313422
  64.0514421  13.9538634   3.9474681  65.3586674  13.2138181   4.1331530
  13.4669268 102.7913761  46.4027452  14.1844237 102.6047802  45.7972622
  12.7040040 102.9172611  45.8385324  27.6600289  94.6453571  28.2657790
  27.9347754  93.9244938  28.8324332  26.9016695  94.3026066  27.7928638
  75.4980707  86.9871902  77.7875566  75.8302307  87.1857548  78.6630392
  76.0875416  86.3099957  77.4556398  53.7163496   1.1296023  23.1579471
  53.8376522   1.1576001  22.2088766  52.7866125   1.3176358  23.2862282
  76.4745331  13.3676958  33.7501574  76.3787937  12.4156535  33.7240839
  75.6325054  13.6842203  34.0773225  86.0007095  12.4451911  16.1701202
  85.7964325  11.7638433  15.5295968  85.3275394  12.3500431  16.8439388
  59.1720200  34.1270328  69.3683386  59.6316624  34.4734192  68.6035013
  59.8287535  34.1312885  70.0646925  42.1154451 100.4207134   2.8139374
  42.4677706 101.2551689   2.5044292  41.9067287 100.5757809   3.7351450
  70.3080940   3.3391330  18.3479679  70.1243544   4.2247933  18.0347943
  70.8687258   3.4671605  19.1131663  12.8373468  64.8663807  67.4833536
  12.3064172  64.0837336  67.3356962  12.2287965  65.5951214  67.3615265
  87.2005844  46.8784571  15.7933009  87.2022057  47.1907043  16.6981387
  86.3455868  46.4618826  15.6852198  86.9203854  26.5745258  67.8168917
  86.1721325  26.4601302  68.4027815  87.1357918  25.6878877  67.5275707
 100.1843929  14.8047638  12.2884810 100.8522415  14.9919915  12.9481471
 100.0107384  13.8681626  12.3825777  63.9968634 105.6985378  32.6390815
  64.5355606 105.6409645  33.4282088  63.1040096 105.5421925  32.9466534
  61.5017319  12.7054012  34.3409324  61.1651230  13.5309803  34.6892810
  62.4012375  12.6578212  34.6647525  42.6039219  11.2674212  17.9233336
  41.9743538  10.7806838  18.4552729  42.9057646  10.6352019  17.2710896
  74.5101452  33.2870197  10.3908300  74.5447159  33.2077670  11.3441169
  74.7748899  32.4252629  10.0690889  15.8603549  39.3616390  75.3344393
  15.9059596  38.8657260  74.5169878  14.9241745  39.4983459  75.4797363
  57.3152351   4.4278985  41.9844913  57.9745770   4.9657190  41.5460300
  56.6336727   4.2993617  41.3248062  48.6163950   9.9347508  58.6677408
  48.3025599  10.5891538  59.2918396  47.8771257   9.3372142  58.5551977
  66.8415308  25.4478550  13.3495998  66.0343170  25.4284310  13.8636637
  66.7688990  26.2415934  12.8195667  54.4083929  42.9976416  59.8157501
  54.9217129  43.2362747  60.5876255  54.4055939  42.0404482  59.8165226
  40.0624752  89.4495869  16.1065543  39.2770076  89.9961853  16.1289454
  40.7554388  90.0382042  15.8072841  71.2035513 105.2604961   9.6827412
  70.4441309 105.6552315   9.2541504  70.8296871 104.6841717  10.3493094
  52.6669931  98.1612968  14.9091542  52.0680428  97.8444386  15.5852413
  53.5384846  97.9449940  15.2407432  49.7107267  75.5059576  18.7751818
  50.4657555  75.6271219  19.3509305  48.9532995  75.5686235  19.3570793
  73.6496115   0.5985633  46.9029665  73.1827116   0.2681934  47.6704884
  73.2839012   0.1045763  46.1691666  31.9269037  87.8932953  48.1937408
  32.6562715  88.5025692  48.0795050  31.1752772  88.4532356  48.3880615
  53.1915283  35.4531097  22.3404860  53.7632132  34.8957705  22.8684783
  52.8041267  34.8585415  21.6981149  90.7447910   3.7105048  48.6257839
  89.9933338   4.2941204  48.5211992  90.3647232   2.8792459  48.9100218
  66.5973616  19.7672927  25.7657671  67.3251009  19.1520941  25.6754684
  66.4678049  20.1161408  24.8838663  95.1577377  79.1395617  25.1137137
  96.0467434  79.3877220  25.3673315  95.2782249  78.4371424  24.4747114
  47.7505398   1.6618566  29.3638992  47.1661568   1.0352755  29.7906566
  47.3815727   1.7752911  28.4879827  73.2423735  13.4905219  58.6707592
  73.4188795  14.0442657  59.4313097  73.3799744  14.0660286  57.9183674
 105.3392792  57.4382830  90.7739449 105.1883602  57.2949982  89.8396397
 105.2663231  58.3861303  90.8857441  33.4072995  18.0438924  30.6601787
  32.9531240  17.6287615  31.3934064  32.8545380  18.7899089  30.4274845
  67.0903778  15.7411730  35.8107281  66.9750452  16.6638863  36.0377359
  67.7434158  15.7465017  35.1109147  55.0696135  13.1265438  28.1613588
  54.5655632  12.8216243  27.4069118  55.3335762  14.0168226  27.9290676
  20.8622718  97.9550171  21.4687681  21.5457201  97.5842476  22.0270348
  20.8077908  97.3540878  20.7256985  82.2871399  11.2812042  22.7323818
  82.3208523  12.1297193  23.1741023  81.5433025  10.8317387  23.1335235
  11.3252246  14.9397600  31.5297365  11.2592173  14.6784925  30.6112504
  11.8175435  15.7604206  31.5105224  76.5588999  27.1313453  52.5004435
  76.3212252  27.1811628  53.4263277  77.2489548  26.4688921  52.4656105
  90.1959038  19.5575392  19.9167323  89.9485779  20.3741503  19.4828987
  90.9783649  19.2653704  19.4491649 109.8159027   7.2844326  39.7040033
 110.7256222   7.5532174  39.5759344 109.7397137   6.4602518  39.2232180
  64.7772360  81.2046814  10.5406320  65.6946611  81.4754868  10.5757117
  64.3981838  81.7331886   9.8383296  46.7342663 103.9473915  18.3780694
  45.8266735 104.2498112  18.3458042  47.0515394 104.2328835  19.2348468
  70.5321980  40.2845812  23.9042783  70.1040220  40.8086634  24.5812082
  71.0699987  40.9114218  23.4204721  52.3647690  78.8257122  19.4515133
  51.9303846  79.6751261  19.3737805  53.2815695  79.0056038  19.2433214
  72.4527407   9.6909434  27.9631352  72.6201725  10.4784036  28.4809232
  71.5139914   9.5332736  28.0637097  34.3967032   8.4547794  43.8815928
  33.9626503   9.1673231  44.3507528  33.6969066   7.8283602  43.6968851
  57.6235056  35.1915884  73.7280512  57.6052094  34.3228531  74.1295385
  57.1568298  35.0823951  72.8994846  42.2698784  23.2474566  46.6148233
  42.6608896  24.1001368  46.4243650  41.9260931  22.9482198  45.7731009
  76.9595861  14.0245450  30.1887178  76.1590910  13.5201597  30.3337526
  76.6541958  14.9170840  30.0264120  13.7649560  26.3953757  39.1060853
  14.0917361  26.7121363  38.2639980  13.3240426  27.1522951  39.4919586
  52.3722649  28.8720775  47.9948854  51.5243006  29.3090773  48.0737114
  53.0141115  29.5759249  48.0890465  57.7224112  27.1923542  60.3135538
  58.5740900  27.1785307  60.7502222  57.9042149  26.8883252  59.4243145
  77.5774050  25.3636241  27.5280428  77.4815178  25.4849696  26.5834212
  76.7325592  25.0142741  27.8116250  63.5856915  28.9498472  22.6225352
  64.2353582  29.5477366  22.2528195  63.9965916  28.0869699  22.5692606
   2.4081564  91.2927628  22.0402694   2.1245733  91.3768959  22.9506183
   1.6170835  91.0375977  21.5655875 104.4256878  24.9781513  85.5444050
 104.2536545  24.0517664  85.3757477 103.7588787  25.4417062  85.0377369
  35.4219937  99.0029144  73.6424160  35.1861906  98.2368851  73.1191206
  34.7261596  99.0697002  74.2963171  75.9869909  55.8726215  28.2086372
  75.6535912  56.7615509  28.0866337  75.2761221  55.3067589  27.9074860
 109.3836498  27.0308852  12.2479820 108.7894535  27.7809525  12.2242737
 109.6490955  26.9067121  11.3367462  77.5750065  10.4084754  24.3042040
  77.5992537  10.5955982  25.2426219  76.6904879  10.0772536  24.1488004
  48.8652802  98.5624599  26.9988704  49.2430353  99.3235397  27.4396491
  49.6075201  98.1471443  26.5597510  76.9324684   5.6613207  22.9482055
  76.2805367   5.2065021  23.4814572  76.6645288   6.5798885  22.9741669
  15.7815923  92.1077726   0.2304253  15.9823122  92.3354934  -0.6773678
  16.5797796  91.6907905   0.5548557  58.3734751   6.5288460  60.6483984
  58.6792660   7.4284625  60.5325794  59.0590715   6.1077130  61.1668968
  81.5123463  27.4078298  50.5811501  82.3530006  27.1024418  50.2401638
  81.4730167  27.0569015  51.4708328  41.6368866  81.1176872   4.9815673
  41.8291426  80.6052971   4.1962451  42.4821997  81.2080956   5.4214519
  77.2947311   0.2346808  64.2903614  77.0800161   0.9628312  64.8733902
  78.0945921   0.5129130  63.8442183  85.6712151  36.0686779  29.7676420
  86.4604092  35.7300305  29.3448830  85.5572319  35.5153823  30.5403662
  50.5762672  18.3609438  53.6462736  49.9907112  18.2291055  54.3919086
  50.1331472  19.0156126  53.1065655  93.0555725   0.6409382  27.1362233
  93.7574768  -0.0098228  27.1276808  93.5088062   1.4827093  27.0889926
  84.1214466  10.3097928  51.2981272  84.7975731  10.6704998  50.7245588
  83.5442352  11.0505819  51.4832735  89.4833851  29.5195103  88.4981060
  89.0083790  29.5378304  89.3289375  90.2810383  29.0260458  88.6890793
  67.9376411  87.1209717  20.8746576  67.8186083  86.2087631  20.6102037
  68.8697863  87.1909332  21.0806847  60.9763002  64.3050623  78.8315344
  61.2828302  65.0268936  79.3803740  61.7342663  63.7259054  78.7521887
  25.6467938  84.4270897  63.2893133  26.1070776  83.6973095  63.7038040
  25.4773569  85.0404835  64.0043402  40.0858688  98.6472511  28.6706352
  39.4664407  98.1763649  29.2281318  39.9845767  98.2456779  27.8076696
  80.9126663   7.5824934  40.1797819  80.5591488   7.7183110  39.3006849
  81.8572903   7.6996148  40.0787973  85.0050831  31.4313269  11.5885806
  85.4515743  32.0324087  12.1848845  85.0174999  31.8796134  10.7429349
  64.3582106   4.4573194  40.6061554  64.0756273   4.2675844  39.7115183
  64.7699118   5.3195989  40.5495024  38.5890341  50.8391762  25.4239702
  38.9174414  49.9401093  25.4165554  38.0988574  50.9218740  24.6059728
  66.7254400  22.8576040  33.6939192  67.4280548  22.2242928  33.8404870
  66.8900490  23.5502934  34.3337011  52.5839090  32.4572277  44.7565746
  51.9656658  32.4654150  44.0258646  52.9455900  31.5709925  44.7543812
  55.8941793  30.5626059  47.1758938  56.7226839  31.0384536  47.1177626
  55.2817917  31.1933136  47.5546026 111.5902901   6.9723433  72.3939610
 111.9559193   6.1103958  72.5929308 111.0097027   6.8199253  71.6483593
  46.7202520  98.6974525  47.0529366  47.2433662  99.4833946  46.8951941
  46.9963598  98.3956718  47.9183388  85.2868271  11.7626297  56.6112185
  84.3325043  11.6897213  56.6247749  85.5466938  11.3523328  55.7863808
  65.7305336   1.9546224  12.9104114  66.2403488   2.0118614  12.1023011
  64.9990845   1.3772051  12.6917624  80.5611897   8.8622099  19.7119796
  81.1814880   9.5911849  19.7045803  81.0469532   8.1383795  20.1073718
  20.5822730  20.3217268  11.6356158  21.4335275  19.8887885  11.7001235
  20.6082320  21.0025001  12.3080039  98.1582832  11.5282965  40.9124041
  98.7143326  11.2415743  40.1879501  97.8215313  10.7165194  41.2916756
 110.8650112  67.6328182  27.0183897 110.6212234  67.0555496  26.2948155
 110.0642586  68.1176901  27.2181964 100.1307392  16.5173161  15.4526532
 100.4743290  17.4082303  15.5193233 100.6383324  16.1170459  14.7467101
  50.9242487  25.5474997  37.5475097  51.2640667  26.4245152  37.3697472
  50.3636599  25.3511572  36.7968941  73.2897234  20.3763962  49.1694069
  73.3709145  19.5028043  49.5521307  74.1113472  20.8133674  49.3934965
  62.1386909 100.5913544  56.8185949  62.2718954 100.3171349  57.7259541
  61.3076210 101.0661030  56.8314075 109.0554428  17.2094333  28.7310958
 109.1507912  17.7578032  29.5098329 109.8371315  16.6569877  28.7300038
  82.6101494  35.7087922  25.9898353  82.3216534  36.3577080  25.3480315
  83.4199142  36.0710740  26.3493562  62.6425457  20.9409094  35.0999713
  61.9334745  20.8195639  35.7314181  62.2112370  21.2885761  34.3193746
  90.6945038  12.6949084  34.9713922  89.9674892  13.1245136  34.5207047
  90.3260612  12.4177527  35.8102393  73.5341787  60.2871752   1.9114606
  72.8730392  60.6971884   2.4691512  73.0349827  59.9044418   1.1899674
  63.8813257  94.9207497  48.1411219  63.2549191  94.8943996  48.8644171
  64.0563822  95.8525848  48.0097055  44.5922327 103.4707737   8.9399183
  44.8718405 104.2735672   9.3798864  44.2386007 103.7678528   8.1015122
 105.9436131  12.2677600  54.9519300 105.4943371  11.5523481  55.4020023
 105.2427197  12.7581584  54.5224047 110.4613304  23.2952404  30.4286718
 110.7551956  22.3902917  30.5332851 109.5130157  23.2277679  30.3174424
  69.2160368 103.5503674  34.5379043  69.1758919 103.7720585  33.6075974
  68.7988949 104.2905712  34.9787307  29.2778873  77.4795198  26.6729832
  28.3716202  77.2221661  26.8423271  29.2069912  78.3079481  26.1987376
  64.9617386  51.9008064  22.8982639  64.1371346  51.4431143  22.7346230
  64.7354221  52.8292227  22.8429985  71.6891193  10.7198894  51.1298943
  72.2281122  10.7427371  50.3392029  71.2581444   9.8656768  51.1013746
  59.3629456  99.0906334  23.4587097  59.1890240  98.1572914  23.5805678
  58.8599157  99.5203209  24.1504908  29.2915344  89.8433876  42.1142912
  30.0104761  89.3346119  42.4891233  29.4301081  89.7930431  41.1685133
  84.4955444   7.0569575  18.5385787  84.8083496   6.1533242  18.4958017
  83.7040901   7.0112997  19.0750098  52.4510384  92.4889660  13.2343626
  53.2814026  92.3291683  13.6829042  51.8459320  91.8536949  13.6171341
  25.2930903  97.8722382  38.7156510  25.3664398  98.7320328  38.3013964
  24.6478343  97.9960251  39.4117498  47.8479433  10.2384031  48.7017345
  47.8080034   9.5177901  49.3305063  47.1732664  10.0300574  48.0554867
  44.2614746  24.5994687  12.0300531  43.8018990  25.4386139  12.0593417
  44.4080973  24.3744922  12.9488134  44.5511866  88.3261395  27.0313406
  43.8695812  88.9661121  26.8262172  44.7624350  87.9229927  26.1892676
  15.5809104  63.0340767  76.4571524  15.7270610  63.5918856  75.6931353
  15.7157350  62.1436214  76.1328936  75.8495474   5.9056753  34.1390681
  75.3934288   6.4415413  33.4901953  76.3499451   5.2757359  33.6204052
  75.7724810  27.9631639  12.9752767  75.6292248  27.6594663  13.8716447
  75.7190418  28.9170551  13.0341566  36.3398719  29.6197104  37.4166059
  36.4043212  29.4446278  36.4777637  35.6053448  29.0810680  37.7108264
  91.9112492  16.4436221  60.7333469  92.8458309  16.3022971  60.5823040
  91.4867496  15.6832099  60.3360987  97.9691410  15.3304029  14.4508767
  98.7952232  15.8109629  14.5046163  97.2953892  15.9959745  14.5898056
 110.5003834  88.4931946  80.1342297 109.8049450  88.6919308  80.7612038
 110.1471424  88.7703896  79.2888784  37.8144526  80.1204681  19.6240401
  37.2352195  80.1409626  18.8622642  38.6971951  80.1330948  19.2541242
 104.9260616  59.9625111  90.5314445 104.1340828  60.1799679  91.0230923
 105.0381756  60.6927013  89.9227715  37.1428442   5.1200438  54.3294096
  37.0332336   4.4591069  55.0130606  37.3165560   5.9315264  54.8064375
   3.4407151  16.4662373  65.3272295   3.3999920  15.6073165  65.7477427
   2.5440434  16.6336048  65.0370598  82.9466724  16.3186264  23.9756489
  82.8227139  16.2702918  23.0277395  83.6821461  16.9203591  24.0906477
  58.1259966   4.4076177  47.2772455  58.1815577   5.3558719  47.1590948
  58.0171871   4.0618396  46.3913393  77.2288799  27.4032044   3.1637868
  77.0733643  27.6509333   2.2523716  77.8815556  28.0306554   3.4745106
  37.7863884  89.3064785  29.5145702  37.9160762  90.2034378  29.2065430
  36.8633890  89.1239071  29.3385983  63.4712839 103.4179306  49.6673918
  63.4000492 102.7264690  49.0093327  64.0875769 103.0717468  50.3128195
   3.7695614  17.2952521  41.0971546   3.3467779  16.7779112  40.4117012
   4.0033945  18.1176138  40.6667185  88.3477116  48.1234884  20.3773475
  88.8310814  47.4283361  20.8238316  87.7115250  48.4268951  21.0249949
  75.2982330  24.2504907  28.8916802  74.5495510  24.5288420  28.3642030
  74.9294472  24.0756989  29.7575188  85.2135372  23.8888311  63.7364101
  84.6623516  24.6156931  64.0264130  85.3427982  23.3578849  64.5222950
  61.2883663  29.8506308  57.5763416  61.2147093  29.1068029  56.9784021
  62.2302628  30.0009513  57.6567316  86.8209171  33.3371925  12.8824341
  87.4530888  34.0544271  12.8358221  87.3232079  32.5969648  13.2230222
  98.6732388  39.7041917  33.0440784  98.3299637  40.4760218  32.5938797
  98.0927849  38.9921546  32.7751803  86.5746403  16.3064611  22.5782180
  86.3570118  17.1757114  22.2416592  85.9883404  15.7138073  22.1078587
  82.0673466  43.6410379   1.3558900  83.0116177  43.6067057   1.5088621
  81.7570114  44.3412685   1.9300038  85.0088120  17.9256999  20.1288342
  85.1245594  17.4028075  19.3354762  85.8985519  18.1583619  20.3942752
  55.4662514 106.1040878  17.1711028  56.3937092 106.3129902  17.2825396
  55.4633522 105.2702236  16.7011106   3.9649346  92.7538395  85.0066280
   3.4564146  93.4790993  85.3694248   3.6316645  92.6498985  84.1153526
  21.8722916   6.7738557  36.5562010  21.2706876   6.0414064  36.4226985
  22.7256727   6.4352936  36.2853694  82.4236488  50.2547503  10.2501726
  82.7110863  51.1627150  10.3461587  82.9930592  49.7597218  10.8391905
  68.8776588  18.0452526  25.1771879  69.3642092  18.6673951  24.6364093
  69.5277739  17.3911238  25.4335070   0.6279677  16.5441918  57.5578213
   0.7774850  15.6385148  57.2864819   0.0470595  16.4744616  58.3153915
  55.4428339  96.7889786  50.7859230  55.2003145  97.7013206  50.6276655
  56.3915062  96.8116188  50.9113598  17.6259363  38.4037185  77.2414017
  18.2360184  38.3691764  76.5046263  16.7922950  38.6646986  76.8500423
  90.4340458  53.0958557  32.7631402  90.3629494  54.0175104  32.5146842
  89.5340919  52.7708054  32.7376223  51.7291832  15.9674275  12.3927772
  51.3019276  15.8116221  11.5505135  52.6393986  16.1599076  12.1676397
  99.5897293  25.7097244  36.2894654  99.2009449  24.8384047  36.2127638
 100.3575420  25.5812216  36.8463969   2.2392310  42.9670811  23.2715631
   2.3047583  42.1172190  23.7070775   3.1245244  43.1413412  22.9520011
  93.8609314  28.5801363   4.6075299  94.4832420  28.1784177   4.0012407
  94.1368294  28.2742214   5.4715490  44.1161585   3.9717010  46.7091131
  44.9039030   3.4279621  46.7025614  44.4001675   4.8092115  46.3428545
  69.3526411  24.9452066  16.5103340  68.5302734  24.4557953  16.5307677
  69.5852137  25.0613165  17.4315631  54.3660402  30.2841520  14.3340540
  53.8490248  29.5004797  14.1475546  53.7285042  30.9200287  14.6587682
  67.8441668  46.1923075  36.1315107  68.0789042  45.5858040  36.8338513
  67.3272228  45.6649733  35.5224776  89.3724537  22.9487348  14.4624531
  89.7653103  23.1101489  13.6046433  88.6609840  22.3326206  14.2879426
 106.9183731  16.3440728  21.8563962 106.4534569  16.6867828  22.6197028
 106.3311386  16.5172827  21.1206055 106.2640858   9.4244111  62.5846577
 105.6564236   8.7837529  62.9541683 106.3286400  10.1065469  63.2530546
  76.5151548  13.6501920  21.1743832  77.3344612  13.1554675  21.1891770
  76.0732651  13.4061146  21.9876432  90.6596565  15.9694934  46.4758539
  91.3711739  16.4281416  46.0290718  89.9432278  16.6038609  46.4992666
  64.1517973  29.2896366   1.3432351  63.8583994  28.4696484   0.9460314
  64.6086025  29.0198421   2.1399605  66.3549185  13.2756352  42.6307440
  65.9808683  13.1813669  43.5067749  67.2171879  13.6638939  42.7789927
  80.9478951   9.5359814  26.8244839  80.7295322   9.2243260  25.9461784
  80.8309841   8.7699395  27.3863959  40.7944822  21.1833167  58.5834074
  41.6216040  20.7062793  58.6507607  40.1452827  20.5920792  58.9644718
  33.2924342 101.8518162   5.7333541  33.1574082 102.4640179   6.4566863
  34.1628146 101.4852142   5.8891529  90.0688744  26.9884515   6.5484399
  89.2660427  26.8189859   6.0555261  90.3929806  27.8190303   6.2001169
  91.8457317  34.1462779  11.6892886  91.4631367  33.5829687  11.0165823
  92.5213432  33.6056495  12.0985568  37.3459721 100.3206635  36.4550781
  37.9811978 100.9649563  36.1426687  36.5567756 100.8309746  36.6366839
  60.3504229  36.9854927  37.7676558  61.3045216  37.0004129  37.6921701
  60.1392269  37.7602673  38.2885695  80.8717346  23.9920235  36.9011116
  81.2285805  23.2450080  36.4206290  81.5964031  24.6157289  36.9467640
  76.8613815  27.7040482  44.4380617  76.1101103  27.2103167  44.1093540
  76.8494797  27.5568676  45.3838015  71.9982004  21.1053705  20.5209374
  71.2782097  21.1071157  19.8901927  72.4086666  20.2473450  20.4134965
  61.7991257  14.7120404  39.4828916  61.1575556  14.5409894  40.1723528
  62.6187897  14.3546391  39.8244286  17.6975119  85.1493549  73.8341045
  18.0386364  84.3653107  74.2643738  16.7471731  85.0357723  73.8477325
  62.9305553  60.1818228   9.1804421  63.1966925  60.1196575   8.2630879
  62.1163654  60.6847286   9.1600710  23.8089800 103.0781746  14.4561493
  24.2885566 103.9062023  14.4314754  24.3884397 102.4797344  14.9276686
  19.6598673  73.0175447  90.6628036  20.4056835  73.6170101  90.6377125
  20.0120258  72.2128963  91.0432625  86.0095978  17.4829125  76.3191509
  86.1193562  16.8827343  77.0566940  85.1361084  17.8549349  76.4410448
  72.5233459  29.8510408  20.8392048  72.3943233  30.7982922  20.8871436
  71.7691040  29.5313382  20.3440881  71.2402201  38.1925464  27.6746583
  70.4783106  37.6310325  27.5317311  70.8789301  39.0772891  27.7287912
  65.4483080  30.7520795  30.3127050  64.9784374  30.9681249  31.1181712
  65.9050655  29.9352336  30.5136228  51.5247059  20.9657407  25.8216476
  52.1651840  21.3578796  26.4151502  51.8681288  20.0902724  25.6431961
   7.0524698  19.4760334   5.0193876   7.8109854  19.5652580   4.4423911
   6.6046667  18.6900282   4.7064993  80.9093189  31.9300485  20.1165581
  81.2194920  31.4862585  19.3272102  80.0920582  32.3506784  19.8493671
  22.3548722 101.1817837  61.0254860  21.5355134 101.0707664  60.5432415
  22.2481561 102.0111847  61.4912558  62.3150921  13.9028287  31.7950392
  62.8439808  13.3147264  31.2559271  62.1648169  13.4151495  32.6048636
  38.4530473  40.0023794  29.6443653  38.1182647  39.1159964  29.5084453
  39.1748500  39.8934627  30.2635336 112.2408390  16.1214006  12.0568824
 112.2228146  16.9714212  12.4966252 112.0225811  15.4916430  12.7439070
   1.0208081  87.8697014  88.3346844   0.2018180  87.5375462  87.9670429
   0.8670428  88.8068962  88.4540844  55.1243067  30.3418994   1.0087305
  55.0667524  31.0008788   1.7005876  56.0459566  30.3458071   0.7503131
  58.6910725  19.0277398  46.6198301  57.9721355  18.5726094  47.0582533
  59.4138861  18.4003246  46.6308689  46.5774441  77.9890251  89.2368984
  47.2354841  77.7452183  88.5859203  46.1944485  77.1565962  89.5136929
  35.2213001 102.5492859  29.0025353  35.9289336 103.1597424  28.7955594
  35.6493425 101.6946030  29.0528560  40.3728867  17.3505116  28.5394835
  39.9270129  16.5490294  28.8134456  40.8221865  17.1096790  27.7293205
  84.9305534  18.1583595  15.0098991  84.5668125  17.6831067  15.7569313
  84.8480892  19.0812802  15.2499998  79.5806503  27.1081805  40.6474876
  78.7841463  27.1298718  40.1170731  79.3876410  27.6769376  41.3928032
  52.7539396  27.9044867  30.1419449  52.0025730  28.0251265  30.7225657
  52.3680115  27.7013016  29.2898846  20.8176732  47.3784971  39.8162985
  21.6543436  47.3632669  40.2810383  20.2164030  47.8150082  40.4197550
  13.9715874  27.2390676  21.8865466  14.6756625  26.7332482  22.2923279
  14.4197226  27.9557776  21.4374018  55.1332855  22.3015070  36.8351650
  55.0728655  21.5845728  36.2038279  56.0370779  22.6084566  36.7632437
  16.4782119   5.2751023  47.5729084  16.1514211   4.4111216  47.8238630
  15.7073784   5.8416295  47.6060104  79.9764109  24.5104694  28.5099101
  79.0467215  24.7047281  28.3908677  80.0207329  23.5544991  28.5296869
 103.8686085  46.9173336  54.8489857 103.0062103  46.5660572  54.6273994
 103.6856461  47.7692938  55.2451134   3.1174901  90.6644154  89.5126247
   3.1240574  90.3457069  88.6100674   4.0038610  90.4962540  89.8324680
  28.5249376  10.2434576  18.1689823  29.2201853   9.5857430  18.1524181
  27.7474999   9.7630590  18.4536588  52.7760077  90.8247185  76.6191530
  52.9022646  90.5894279  77.5383520  52.7366018  89.9855709  76.1603498
 109.3427277  40.2115393  32.4705648 109.5157719  40.7384872  33.2506990
 108.3880424  40.1847506  32.4065542  99.6228027  28.2769632  25.7333684
 100.4218292  28.0685019  25.2492881  99.3526936  27.4439526  26.1198425
  71.2647867  27.3098373   6.8545657  70.4169464  27.1658444   7.2748840
  71.5575743  28.1571817   7.1899992  80.2874947  34.1282749   1.5722780
  79.3392992  34.2064023   1.6773683  80.5911160  35.0291324   1.4604582
  80.3688717  21.7756224  27.9959178  80.9175110  21.0689116  27.6556349
  79.8596239  21.3675141  28.6961651  87.7905369  23.4247279  47.9662991
  87.9667854  24.3615317  47.8793049  88.3109093  23.0177784  47.2735929
  68.6075497  92.9094887  16.6674650  69.1278696  92.1458435  16.4177620
  69.2474747  93.5340691  17.0089722  87.9688931  23.1727481  17.2473514
  88.9056206  23.2864118  17.4081707  87.6130867  24.0611577  17.2663331
  75.2891350  34.3613982  35.4367971  75.7769585  34.4474888  34.6177435
  74.7925997  35.1767492  35.5066752  61.7435598   6.4558262  39.6357346
  62.0501947   6.1387908  40.4852581  60.7919168   6.3600540  39.6736217
  72.4607754   0.8809155  35.0867438  72.2150278  -0.0164509  35.3116298
  72.6546764   0.8485294  34.1499496  57.5915003  14.8005247  55.8538532
  57.3399639  14.1105938  56.4678192  57.3394823  14.4606352  54.9952555
  95.0072956  27.8133678  29.5774841  95.0797272  26.8723035  29.7368050
  95.7681465  28.1903505  30.0193334  13.6588311  10.9684980  43.1469536
  13.2924521  11.6652584  42.6024151  13.1101060  10.9638703  43.9312458
  34.1360068  24.5780516  14.9493682  34.6801758  23.8009000  15.0764441
  33.2618809  24.3068099  15.2296615  92.1572971  53.8014984  19.2826986
  91.2206078  53.7085247  19.1088951  92.4949360  52.9060841  19.2611027
  81.5762234  76.1127281  33.7478113  80.7800674  75.8852196  33.2675910
  81.2816525  76.2512064  34.6479702  81.2003803  48.6159372  26.9309115
  80.3044891  48.8358450  26.6754723  81.5342617  49.4126177  27.3432803
  12.8434730   8.0449355  14.7783470  12.4028146   8.2493711  15.6031251
  12.4438870   7.2242004  14.4903255  61.2858725   2.7931058  13.3209622
  61.7722559   2.8805292  12.5011921  60.5840874   3.4405199  13.2532895
  78.8471413  21.2722111  50.7746315  79.7415447  21.5781617  50.9251928
  78.8169146  20.4086208  51.1863756  73.3908510   7.5363517  29.6276832
  72.4844217   7.3533541  29.8749161  73.3262634   8.2467496  28.9894080
  66.6289091  34.4890094  44.4665003  66.9025755  34.0027428  45.2442408
  66.1466932  33.8499308  43.9418316  54.4733477  82.9862690  29.1001248
  53.6275911  82.9175949  29.5430732  54.4174194  83.8018513  28.6021996
  59.0422153  18.8164842  41.2419319  58.6821508  19.2856133  41.9945955
  59.8498440  18.4211600  41.5700912 104.9163437  40.7704449  87.5232506
 105.3837109  40.6685305  88.3523560 104.0105724  40.5391073  87.7288914
  66.8102837  16.8727410  42.4647379  66.9724178  16.8789887  41.5213919
  67.5167894  17.4034715  42.8327131  52.1089554  35.2240419  42.5409985
  52.4238157  35.7241225  43.2940006  51.6410780  34.4823742  42.9247284
  36.9381738  26.4590597  46.7099810  37.8480291  26.2916756  46.9557047
  36.6361284  25.6328773  46.3325930  11.4239001  33.0455446  27.9797149
  11.1375594  33.7520432  28.5585928  11.1361301  32.2449493  28.4184265
  90.1887703  28.4160376  33.7005496  90.6546783  28.8486767  34.4160819
  89.2798805  28.3733749  33.9977455  88.7661648  62.9320192  40.7080603
  89.0933800  63.5765123  41.3355875  87.8288937  62.8721714  40.8929157
  50.9651852  21.8799376  18.0594909  50.7300663  22.7225065  18.4481144
  50.3119087  21.7418790  17.3736358  54.5569372  31.2416339  27.8185487
  54.5011234  30.9240746  26.9172859  53.8303947  30.8114815  28.2694817
  98.9654636  54.6111870  20.9611893  99.4689465  54.0742874  20.3492498
  98.1247330  54.1603470  21.0396671  90.9450245  77.7547264  42.4898434
  91.6547489  77.8732920  41.8586063  90.5761623  78.6307430  42.6028538
  39.8660827 103.6999702  81.1178112  39.0674782 103.3270073  80.7445049
  40.3174829 104.0948391  80.3717899  88.9458561  24.0418506  36.9384503
  88.2115269  23.6918855  36.4339590  88.8155556  24.9900413  36.9248104
  87.1660233  55.3949451  46.1960077  87.7730751  55.4344273  45.4569817
  87.1549606  54.4715261  46.4478111  73.1564236  36.7748976  26.2981606
  73.4309816  36.5573645  27.1889615  72.7411032  37.6335549  26.3784885
  48.2454967  41.5956831   7.3317879  47.4043465  41.7661667   7.7556217
  48.0223513  41.4246559   6.4168072  22.0128798  65.9886599  90.1784420
  22.6845956  66.6506577  90.3421116  21.3229370  66.4582920  89.7097588
  91.2247658  29.2146635   5.1345235  92.0972061  28.8385224   5.0179249
  90.9259415  29.4066048   4.2456508 101.3664341  55.3287411  27.2057104
 101.0155869  54.6071863  27.7277160 101.5628910  54.9357319  26.3553119
  65.2204275  36.3276458  21.1998439  66.1002016  35.9507966  21.1852312
  65.3346682  37.1869659  21.6057372  72.9260015  39.0620542   8.7666631
  72.5551844  38.6102462   8.0086416  73.8188839  38.7237239   8.8339764
  74.9397659  20.2484035  75.2036905  74.0624475  20.6268787  75.1462746
  75.5280733  21.0031772  75.1826477  50.0985003  55.7364511  17.9753315
  50.9965229  55.5361938  17.7113557  49.9658394  56.6446209  17.7035689
  87.0335102  27.3587036  23.4762526  86.6773224  27.8327155  22.7248025
  86.3560581  26.7205310  23.6999011  78.0681658  10.1520681  20.2938557
  78.7646914   9.6071559  19.9275815  77.2619867   9.6756852  20.0954390
  49.6246958  17.0859182  41.6990423  49.5894480  18.0279946  41.5332651
  50.4300690  16.9610345  42.2010517  54.6912336  37.4310565  35.0832176
  54.7015333  36.5662384  34.6730757  54.7744560  37.2528744  36.0199976
  63.7430525  37.0025897  32.2717285  64.6247911  37.2800112  32.0231318
  63.1859255  37.3037863  31.5540099  21.7678332  30.2837515   5.5648232
  22.4953151  30.6466269   5.0595254  21.3847852  31.0396624   6.0099113
  66.0055399  17.1315086  13.1711113  65.1503515  16.7096055  13.2540989
  66.3857031  16.7487907  12.3803937  13.7644613  35.0165439  41.8617487
  13.1320119  35.7332969  41.8116903  13.7442768  34.6181083  40.9916496
  95.7715225  25.1200223  34.8733950  95.8697319  25.6202316  34.0632248
  96.6309452  24.7232652  35.0155830  62.8469658 102.8873158  13.8176906
  61.9822550 102.5393486  13.5999095  62.8239918 103.7942696  13.5125089
  37.9941368 105.8350658  49.7802496  37.7426243 106.6517925  49.3490696
  38.3948088 105.3114128  49.0863609  55.8219814  32.7234554  30.2954960
  55.8237648  32.1008229  29.5684767  55.0986147  33.3188033  30.0991964
  59.4679356  33.9658880  18.0618989  59.3107700  33.4946108  18.8800836
  58.7372017  33.7150121  17.4968171  77.0516157  16.8071651  29.3165278
  76.8216848  17.5608909  29.8599076  77.9185343  17.0176065  28.9695430
  22.6187062 102.3801231  46.7404175  23.2307172 102.9198647  46.2400723
  22.9117537 101.4817333  46.5879440  80.9497547  51.7347145  14.3295383
  80.2137184  51.9311619  14.9091017  80.5414867  51.4678526  13.5059285
  61.2451792  32.1647620  38.8585424  60.4984474  31.5728068  38.9491868
  61.9219351  31.6340137  38.4383774  54.4896173 104.8780727  44.3423557
  54.0603018 105.6847382  44.6273375  54.6655750 105.0163078  43.4116793
  80.0072193 100.6517601  15.7733071  80.1542950 101.5612030  15.5134606
  79.2729616 100.3634930  15.2310872  84.1464615  12.2064126  13.5443950
  84.8003769  11.5509284  13.7872243  84.6339417  13.0294251  13.5091400
   1.1401130  14.8246861  15.0889087   0.4240653  14.3661654  14.6492875
   0.7317694  15.2278113  15.8550525  82.0207787  23.2288909  48.2593822
  82.0888805  22.2741175  48.2600498  82.9009056  23.5316324  48.0358744
 105.9920311  34.1141820  41.8725443 106.1725616  34.8376060  42.4727917
 106.5793800  33.4141850  42.1575832 103.4094238  31.4963436  23.5854793
 103.7614346  32.3729658  23.7399507 103.6871338  31.2801576  22.6953268
  56.7014933  39.4973516  16.3734090  57.3677063  40.0105000  15.9161639
  55.8704662  39.8139644  16.0193098  15.2356029  74.2826080  21.3114762
  15.3956795  74.5575571  22.2142529  14.8286474  73.4200096  21.3923979
  13.1646550  40.0510311   4.8151198  14.0566826  40.3344440   5.0156069
  12.7889597  39.8230410   5.6654751  17.9524601  54.6542883  82.2183704
  18.5359573  55.0083351  82.8894997  18.5337722  54.4202805  81.4948082
  46.6734552  38.2022977  68.5099459  47.1009636  39.0317273  68.7232876
  45.7479000  38.4272957  68.4152746  70.6320524  26.5755272   9.8403400
  70.6098843  26.2046218  10.7224786  71.1966133  27.3445988   9.9179995
  59.8867559  24.5290375  53.3649158  58.9380455  24.4350958  53.2791996
  60.2115536  23.6309099  53.4290218   6.5370071  30.7586789  42.5336838
   7.4063444  31.0311937  42.2400522   5.9382313  31.3781881  42.1166611
  95.9015656  24.2322159  16.5668166  95.7099915  25.1669812  16.4910173
  96.7206573  24.1948700  17.0607090  78.8988495  27.8789043  20.7362914
  78.1553030  27.7858663  20.1407146  79.3192005  27.0189571  20.7307863
  15.9770930  89.9213600  82.7998447  15.2937126  90.5770206  82.6608372
  15.8235502  89.2671394  82.1181870  86.1041927  29.9213600  32.2607207
  86.3045788  30.7226682  31.7770028  86.0667419  29.2396331  31.5898418
  49.1568851  29.5868754  33.9110112  48.3706141  29.0409732  33.9128613
  49.6060324  29.3571663  33.0975437  72.8684521  14.4137704  37.0717454
  72.2070980  13.8694859  37.4990582  73.4954882  14.6178138  37.7655911
 107.7628994  48.5585403  41.0100937 106.8209362  48.4030342  41.0790586
 108.0533600  48.6745548  41.9147491  79.7645569  30.5715919  15.1207078
  80.3699398  30.4216099  14.3945837  79.9860144  31.4462256  15.4404104
  90.6855106  36.0914230  16.4007688  91.0096455  35.5303407  15.6962407
  91.0773277  36.9469142  16.2251318   2.2257730  35.3968573  39.0796399
   1.7690356  35.3477073  38.2398725   1.6098997  35.0224519  39.7095227
  87.7550602  13.1740808  23.5145259  87.0150566  12.6865232  23.8763595
  87.4603844  14.0847480  23.5053611 103.1214809  32.9469633  54.6685410
 102.5736809  33.6835551  54.9397945 102.7814865  32.2009349  55.1625872
 100.4519367  24.4631314  41.0934401 100.8201694  24.8006845  41.9099522
 100.4979515  23.5114646  41.1853361  73.2672834  57.3113489  10.0323617
  72.4571657  57.4282265  10.5286312  73.5045195  56.3948202  10.1735139
  67.2239447  10.1650095  65.9732771  67.5253582  11.0379553  65.7215881
  66.2697983  10.2381778  65.9952831   7.0094419   4.4176379  32.9875278
   7.4339324   5.0756556  32.4370265   6.9353837   4.8350006  33.8457561
  74.4586849  99.5171928  30.6968832  75.3993416  99.6933842  30.6781387
  74.2532682  99.4115067  31.6257906   3.2168415  45.5561447  66.1638165
   3.8417649  46.2273121  65.8895159   2.8036505  45.9194136  66.9471073
 100.2601624  72.0115376  36.9988775 101.1415768  72.3838472  36.9722152
  99.6992779  72.7422523  37.2590709  95.2718735  63.9097643  21.9796419
  94.4075775  64.2900467  21.8227482  95.1061535  63.1728029  22.5675678
  23.0616355  95.1154709  84.5602226  22.2340488  95.4877853  84.8647118
  23.1603646  95.4485893  83.6683083 107.4661350  11.1875141  37.8598261
 107.1800423  11.0330522  38.7601185 106.7865658  10.7838297  37.3199630
  60.1173830   3.5043675  85.7942867  59.9608183   2.6872736  85.3209209
  59.3122339   3.6517414  86.2905216  76.1125326  35.0252724  16.8985283
  75.5998993  35.2199578  17.6830888  76.3726854  34.1100931  17.0033967
  97.7221584  33.4883595  27.1032238  96.9093704  33.1534672  26.7244697
  97.5127316  34.3848491  27.3652864 106.4830875  36.8651819  35.8409882
 105.7261753  36.6650963  35.2902889 107.1009350  36.1553335  35.6660080
  19.5868695  37.2944355  60.5916357  19.9658728  36.5600348  60.1086855
  19.8216057  37.1274614  61.5044641  53.3878231  47.4470139  87.4817657
  53.8432693  48.0520630  88.0671883  52.9687977  48.0118036  86.8324089
  95.0273132  46.9303036  40.4860544  94.6330833  46.7117548  39.6416354
  94.5013142  47.6595163  40.8143997   1.8844320  56.2732458  22.5757384
   1.0725946  56.6902971  22.8642178   2.5715849  56.7177296  23.0722117
  14.3907523  79.4271803  90.9165382  14.4550025  79.8787594  90.0750065
  15.1016712  78.7864494  90.8994293  74.4923878  58.1522226  21.6699219
  74.2879534  58.8774252  22.2602820  74.7675467  57.4418545  22.2494841
  96.2321377  48.4176302  26.7315674  96.7171574  48.4703779  27.5550961
  96.7998219  48.8466930  26.0913563  79.1832304  45.7572699  30.0186706
  78.2532310  45.9473085  30.1420164  79.3829441  45.0972843  30.6825733
 109.5909882  10.8498216  18.9589643 108.9939404  11.4152479  18.4690011
 109.1251659  10.6577146  19.7728062  89.7627831  55.8141565  17.6072407
  89.0019894  56.1204624  17.1136785  90.4252148  55.6355143  16.9397819
  74.7669458  47.1962500  22.2950363  75.4258108  46.5744019  21.9861102
  74.4092512  47.5829744  21.4958310  26.6824341  99.4696045  19.6094823
  27.5851250  99.1521549  19.6341288  26.7636180 100.4105663  19.4538200
  66.1760712  54.3380308  11.7191255  66.5690136  54.8372269  11.0031414
  66.7854023  54.4464540  12.4493289  73.5818577  49.2135620  14.5938957
  73.3455372  48.3142853  14.3665636  72.9003334  49.7499800  14.1889071
 104.0177441  56.9257784  48.9209080 103.8163471  56.0952091  49.3519783
 104.7478962  57.2860003  49.4242573  94.2052937  58.6994791  23.1878972
  93.3585167  58.9455032  23.5602808  94.0076637  57.9627991  22.6095533
  69.9120665  29.5554638  24.1333699  70.0253677  30.2750397  24.7543430
  70.7846594  29.1707754  24.0507340 108.3826542  22.6233888  53.6987066
 108.2980347  22.7497554  52.7536631 108.6151123  23.4884477  54.0361547
  91.2966061  41.8674850   5.5009943  90.8665085  41.0632849   5.7917029
  91.3367367  41.7866278   4.5480606  14.2573380  69.5624065  46.8041039
  14.0864813  68.6716938  46.4980555  14.8936737  69.4548368  47.5110245
  19.3086922  78.8153458  84.1060066  19.5325768  77.9495573  84.4473553
  19.6759856  79.4267941  84.7443390  35.9841108  82.9290581  91.8916130
  36.3422704  82.0922470  91.5954494  36.6877151  83.5591602  91.7362404
  93.6321926  63.3308506  15.5426216  93.6291218  63.5852146  14.6198428
  92.9113293  63.8271570  15.9302711 101.0792255  31.7405725  33.0918384
 101.5158463  32.2354293  33.7851715 100.2087879  32.1337414  33.0287027
  14.3458676  58.6063480  46.2448215  15.2442110  58.2771349  46.2736082
  13.8011372  57.8229713  46.3211346  89.2197990  52.3904800   2.4516842
  89.3612289  52.1339035   1.5404233  90.0413036  52.8060055   2.7137783
  77.5152063  32.9036641  11.5361321  78.2338810  32.7011967  10.9371758
  77.3776484  33.8455629  11.4354563  98.0511475  65.3940678  45.7589340
  98.2088947  66.3331175  45.8565807  98.7071514  64.9813175  46.3206482
  92.0743179  58.0524492  17.4355078  91.3447666  57.4333954  17.4630988
  92.8390598  57.5126314  17.2355378 111.9522858  70.1011848  20.7881188
 111.8091965  70.5525064  21.6200256 112.9006863  70.1275873  20.6613398
 111.3310528  17.6876330  18.7951863 111.7565727  18.4805763  19.1213810
 110.6826496  17.4708700  19.4651246  18.2807267  55.5773878  20.6733942
  18.6014187  55.0277424  21.3884330  18.6425972  56.4443398  20.8568883
  54.7280836  80.8636284  27.1183896  54.8376703  81.7671967  27.4146581
  54.4994593  80.3777981  27.9108167  61.3919020  21.2996650  17.8540099
  61.4240408  21.1623836  16.9072509  60.4670858  21.4602852  18.0414784
  72.2418737   4.0605417   5.1047379  72.7830791   4.4107205   5.8123434
  72.2089338   3.1186548   5.2720577  86.3688278  52.5287342  26.2396598
  85.7470798  52.1220970  26.8432379  86.3963318  53.4474087  26.5070748
  88.9091396  49.9554300   8.3747590  88.2426643  50.4740810   7.9241645
  89.7032547  50.4871464   8.3209860 109.2164135  18.7977087  42.4034929
 108.8608074  18.2187486  43.0777216 110.0588799  19.0856290  42.7550268
  82.8072739  23.2738447  14.6232140  83.1448936  23.8696671  13.9544559
  83.5760689  23.0342460  15.1406872 108.9931202  69.2884111  58.7405348
 109.4970322  68.5340452  59.0458822 108.5181904  69.5887327  59.5154428
  82.5072002  57.7372074  27.6800752  82.0363712  57.0337677  28.1269836
  82.9871178  58.1846666  28.3769894  36.3531280   7.5766963  83.5596848
  36.7686605   7.1018803  84.2794895  35.5844116   7.0510864  83.3382320
   5.6747299  81.6622257   7.3757112   5.5758357  81.3013554   6.4946741
   6.2248403  82.4365139   7.2570348  72.0619869  13.5049224  28.0636573
  72.8841686  13.0699158  27.8377748  71.3817406  12.9016268  27.7644420
 100.2619553   8.8025606  53.1496429 100.6597042   8.3552390  52.4026918
 100.0031471   9.6578610  52.8065491  97.0353317  64.3623066  40.8136034
  96.8808842  64.7617483  41.6696548  97.9452705  64.5779896  40.6093311
 101.5774250  56.0641909  37.1064305 102.0004845  56.9180870  37.0163035
 102.2927952  55.4330301  37.0282197 103.3075714  35.7509208  14.7981668
 102.4076748  35.8584642  15.1061666 103.8459015  36.1227894  15.4968381
  63.8118029  36.8627739  27.8377628  62.9872179  37.3469830  27.7949119
  64.1992664  36.9722843  26.9693685  88.5210896  38.7781572  26.0453916
  89.0751934  38.2477689  26.6180134  88.3570385  39.5781350  26.5447426
  16.4581144  42.6392698  69.9326086  16.4391720  43.4708309  70.4062986
  16.9147551  42.0385122  70.5215073  52.7439260 102.8207684  90.0488186
  52.9279327 102.1975040  90.7516098  51.7884302 102.8622532  90.0095654
  92.1604252  22.9184866   7.2983426  92.4527168  23.7502003   6.9254494
  91.6860294  23.1654692   8.0921805 107.5259399  46.7291546  10.1753759
 107.0253468  47.5449228  10.1625121 106.8932819  46.0559416   9.9248445
  94.3383980  26.6349626  45.1727819  94.7943592  26.8468547  44.3582678
  94.9336815  26.0438657  45.6337214  22.3335290  93.4025383  67.5941133
  22.5586891  94.3323803  67.6244640  23.1714630  92.9571724  67.4686193
 111.7331123  68.9863825  50.7581997 111.6682148  69.6009445  51.4891815
 111.0519600  69.2678642  50.1474428  89.5590591  46.5804243  46.0694170
  90.4056549  46.4365625  46.4922762  89.5682144  45.9971619  45.3105021
  51.3600302  16.5259039  79.0994501  50.5988646  16.9366968  78.6894417
  51.8566179  17.2562766  79.4684887  53.2407761  37.2651505  18.1323409
  52.3214102  37.1669269  17.8846407  53.5677099  37.9649258  17.5669575
   7.9721022  63.0051374  30.5698586   7.6751208  63.3175278  31.4245224
   7.5000292  62.1829367  30.4380989 104.8804855   8.5359406  51.6996193
 104.5828247   8.8002372  50.8291149 104.3844414   9.0911794  52.3011827
  99.2053318  67.8207493  53.0093765  98.9916611  67.1329689  52.3788786
  98.6172867  67.6602221  53.7473917 104.8839283  65.1674175  29.1479135
 105.7354641  65.5783749  28.9988136 105.0252914  64.5883608  29.8968720
 108.8471603  65.0079298  25.4401016 109.4848061  65.5046797  24.9273849
 108.0212498  65.4745531  25.3121901 106.8703461  19.5735908  45.8958435
 107.8115654  19.6128762  46.0655355 106.5933132  18.7392807  46.2745428
  67.0908976  37.7726722   9.4940954  67.7419138  37.5753307  10.1674938
  67.6038551  38.0891109   8.7504709 103.5596180  27.3700571  48.8229799
 103.0899525  28.1255460  48.4695864 104.4415092  27.6975369  48.9997673
  82.0883083  99.2341614  26.2256169  81.3236046  98.6603928  26.2731171
  82.8181076  98.6452007  26.0339165  82.4198914  53.3147717  36.5651298
  82.6676941  52.8384542  35.7727003  82.1515656  52.6325512  37.1806049
  96.0783958  35.4666543  46.9364738  96.1243439  35.2563453  47.8691530
  96.3992119  36.3665771  46.8777847  97.1653652  66.9998360  16.7068923
  97.7969646  66.5068531  17.2306108  97.7007389  67.4784374  16.0739994
  92.1809006  48.3486223  28.3692765  92.1546555  47.5288200  28.8627028
  91.2652969  48.6210108  28.3085108  14.2905331  94.9701023  85.6567574
  13.5349965  94.5181847  86.0324860  14.1048968  95.0076771  84.7184849
  15.8328259  14.0726459  17.4830544  14.9767971  13.8952982  17.0931900
  16.2578261  14.6690106  16.8666470  71.2307882  49.9647617  24.8679423
  71.4045811  50.7036161  25.4511428  70.6707048  50.3277874  24.1818261
  93.4558201  39.5619464  38.7533188  93.8676739  38.7870789  38.3709741
  93.1011391  39.2571878  39.5885181  28.1861019  94.0416718  90.1381111
  28.5922813  93.5403061  89.4310951  27.2496438  94.0177059  89.9413776
  31.4117241  34.1040301  14.3622696  31.4360261  34.1648722  13.4073138
  30.6239533  34.5864916  14.6130359 111.3852978  20.8940363  30.4511714
 110.8774376  20.1365662  30.7419491 111.9226265  20.5606031  29.7326064
 100.1292419  37.8666449  28.5423779 100.4641819  38.5446382  29.1292048
 100.9135818  37.4506474  28.1846428  83.1502914  15.7860029  21.1219740
  83.6333561  16.3878310  20.5556893  83.3880043  14.9150300  20.8039689
 103.7058544  19.7798014  11.3534188 104.0918636  20.6288981  11.1383271
 102.7722359  19.9614871  11.4610171  12.3417819  12.5261652   1.7953566
  12.8907919  13.0895054   2.3407626  11.4817369  12.5512826   2.2147910
   0.8133218   2.3472248  39.5040441   1.2652501   2.3383093  38.6602950
   0.5010289   1.4496031  39.6179748 109.5144749  19.5720530  46.6366053
 109.5380116  19.3266058  47.5615025 110.3930473  19.9057245  46.4549255
  72.5728941  27.7831578   3.6598954  72.0282984  27.6763582   4.4397920
  73.3537102  27.2593975   3.8394466  91.4548588   6.2931377  86.2910748
  91.0104847   5.9854227  85.5010891  91.2132931   7.2169811  86.3573170
  95.1700974  51.3016987  53.9245987  94.8487282  51.3349295  54.8256254
  95.6378174  52.1284533  53.8064766  94.0526962  70.1886129  39.7364211
  94.6137428  69.9652958  38.9937329  93.2309818  70.4755592  39.3380833
  98.1396675  42.6371765  44.7399521  97.4675560  42.8406477  45.3904057
  98.8765335  42.3050833  45.2527761  72.5660610  29.0989184  29.1917610
  72.8491974  28.3640361  29.7358322  72.9389191  28.9160466  28.3293390
  13.3534741  29.3518186  85.5573559  12.5354874  29.6966958  85.9153938
  13.1261611  28.4780836  85.2393150  10.5113780  24.8434472  27.8072906
  10.7073975  23.9860916  27.4294710   9.6802729  25.0976014  27.4061656
 103.2860661  45.6885624  14.0587676 103.3915520  45.6191778  15.0076032
 102.3609638  45.4960442  13.9059210 102.9002476  21.3059855  88.2526207
 102.5003052  20.7652712  88.9337254 103.0495834  20.7026076  87.5247002
   9.7117192  84.4589329  71.3714027  10.2057064  85.2779102  71.3328886
   9.9118382  84.0989208  72.2354507  83.3375740  54.4458103  25.3380513
  84.0614510  54.1606951  25.8956647  82.6884937  54.7956705  25.9484053
 101.8768692  11.5864265  23.2964110 101.4115143  12.2234166  23.8385582
 101.5601158  10.7360041  23.6008501 101.6863632  73.4210348  29.4904947
 101.8120289  74.2347240  29.9786997 102.3554611  73.4463644  28.8064623
  18.5734332  84.2676830  26.3396525  18.5946321  84.1998386  27.2942114
  19.4033253  83.8857651  26.0539055  83.2870483  46.8824959  28.9443827
  82.4706554  47.2316790  29.3018675  83.7853432  46.6042423  29.7128296
 107.8454399  81.3357544  26.7615056 107.8410053  82.1362495  26.2367010
 107.9710484  80.6324291  26.1244965  94.6595287  48.0507278  32.9301023
  94.6071434  48.7902212  32.3245978  94.9123192  47.3087692  32.3807144
  73.7766027   0.5672172  83.6399841  73.3252478   1.3655877  83.3659077
  74.1887522   0.2387583  82.8409386 110.8217335  36.9898605  23.2646942
 110.6024170  37.9212070  23.2378149 110.8136749  36.7686772  24.1959548
 100.0181580  58.2283735  31.3745403  99.9677563  57.3268127  31.6921520
  99.1548920  58.3980656  30.9974122  78.1936502  65.9402037  38.1323004
  78.3697414  66.3450909  38.9815879  78.3046627  66.6507387  37.5005984
  13.1184506  54.4738960  14.1073763  12.2962630  54.4188404  13.6203372
  13.7600684  54.0414715  13.5438454  76.4769030  51.3619709  11.1210680
  76.5445995  51.6072798  12.0438218  77.0004129  52.0173836  10.6599748
  80.4818535  16.9168067  21.7372751  80.7379246  17.7673948  22.0938730
  81.3086414  16.5005457  21.4935684  67.5281334  55.0550127  17.1853638
  67.5189686  56.0080719  17.0968759  68.1019592  54.7545433  16.4806139
 103.7440205  60.1579618  29.4744802 103.6109257  59.4593382  30.1151371
 102.8858376  60.2762651  29.0673494   2.7314362  74.7228765  28.4937811
   2.0695996  75.3900385  28.6757088   2.3589125  73.9139938  28.8447285
  93.3525276  53.9366817  34.4964099  92.4969387  53.5904026  34.7499561
  93.5362339  54.6182346  35.1429129 102.5772762  65.8364296  11.9276881
 102.0571804  66.6395760  11.9014251 102.2838402  65.3360558  11.1662769
  22.6029849  66.5705681  39.4918656  22.5724101  65.6154585  39.4365263
  21.6997552  66.8483543  39.3394065  27.3922110  63.2091665  55.4052734
  28.2131457  62.9600954  54.9806976  27.3899698  62.7198648  56.2279558
 109.7934532  74.1031647  35.8479714 110.2372074  73.6827755  35.1113677
 110.0629234  75.0202990  35.7981348   2.9873347  56.3194799  71.4023733
   3.5955867  56.7272806  70.7859659   2.7882817  57.0099688  72.0346975
  82.2011757  24.7348404  79.8212242  82.3529816  24.8932314  78.8895035
  82.9466438  25.1461244  80.2586651 100.6764030  64.7356176  43.0257702
 100.2968407  65.5665827  43.3115339 101.6086578  64.8162222  43.2273531
  92.2163582  63.3367300  26.1449552  92.8591347  63.8897133  25.7008004
  92.6817608  62.9939985  26.9079518  14.9941373 101.7832184  68.5792732
  14.6606600 102.5039959  68.0449438  14.3458104 101.6817856  69.2761326
  10.2720129  26.1720252  32.0377731  10.9323084  25.7519436  31.4866161
  10.7776451  26.6771889  32.6744652 103.2008266  58.0559683  59.7715425
 103.8631535  57.3855829  59.6038055 102.4056435  57.5622129  59.9718380
  86.1428738  65.5479097  23.1277299  85.9948444  66.3956881  23.5467672
  87.0498371  65.5859423  22.8240705   4.4295719  58.9455223  47.9197073
   3.6827382  59.5361185  47.8213739   4.9273798  59.0518665  47.1090841
   9.3540388  98.3525944  26.7568874   8.9950407  97.6411915  26.2265468
   8.6642474  99.0161705  26.7659831  87.4446869  74.9437046  53.9071846
  88.0936146  75.6370878  53.7874365  87.3065090  74.9058199  54.8536015
 102.9826736  54.2217302  19.8527515 103.4180260  54.5899296  19.0839016
 102.7704716  53.3230972  19.6004319   6.6735834  62.8544998  41.7760706
   7.5491989  62.9583693  41.4035892   6.7759150  63.0907297  42.6980019
  95.3977108  73.2149649  52.2931385  95.6143761  73.3766127  51.3748980
  96.1711121  73.5056210  52.7764654 110.9410477  63.6811018  10.6862140
 111.4652920  63.0773783  10.1599848 111.2949944  64.5465851  10.4815555
 104.7789478  72.9544258  54.1878605 103.9339924  72.9436874  54.6374750
 104.6467686  72.4034214  53.4163952  89.7787094  57.0759869  10.2871847
  89.8690605  56.1232662  10.3068924  88.8447189  57.2309685  10.4282010
 109.2023945   1.5247299  88.7111187 108.6105347   1.3811351  89.4495773
 108.6526585   1.9260734  88.0381107   2.9273701  51.5509462  22.3156404
   3.8588560  51.7707443  22.3316026   2.4956153  52.3090363  22.7094936
   0.9810256  91.0978127  60.7176876   1.3537624  90.8984661  61.5765047
   1.3797173  90.4569817  60.1289558  95.7956028  66.5095425  35.5885935
  95.2001286  67.2482109  35.4620647  95.3705692  65.7794380  35.1385713
 101.8443394  51.1964750  21.6788340 102.6178455  50.6728888  21.8880439
 102.0366096  51.5757322  20.8212638  84.2372608  68.8766432  23.8895178
  85.1206017  68.9217997  23.5235858  84.0617466  69.7642612  24.2018652
   6.6407764  77.5500107  42.6482058   6.8737769  77.4643040  43.5726500
   6.0103798  76.8464422  42.4938679  19.0510094  59.1551256  47.6228380
  19.6141839  58.4419489  47.9235744  19.3376625  59.9159670  48.1279993
  85.7403469  58.8186026  29.4122219  84.8536587  58.9112997  29.0637755
  85.8387470  59.5550632  30.0156927 111.2234497  63.0473566  13.1825376
 112.0944691  63.4052420  13.3542442 110.9614754  63.4431505  12.3513067
  95.5384254  59.1677475  75.0379419  95.4547691  59.8425770  74.3642616
  95.6196499  59.6559954  75.8572388  14.4540310  97.8494835   3.8523838
  14.4501150  98.7703705   4.1134882  13.6235285  97.7274227   3.3923855
 100.7336617  45.7378435  37.8652167 100.6271648  46.6394281  38.1685781
 101.6811657  45.6046486  37.8379607  81.1012745  92.7882099  11.1105585
  81.6946316  92.9122925  11.8513429  81.3218117  93.4965992  10.5057693
  11.3822210  46.0549402  39.2386317  11.2417793  45.4639816  38.4988523
  12.2199976  46.4783287  39.0512729  71.7294693  82.9427814   9.3054742
  72.1089506  82.3119640   8.6936790  71.7139673  82.4828720  10.1448035
  93.5991669   7.1674061  16.6757572  93.9093208   6.2779462  16.5057635
  93.6180496   7.5953430  15.8197522  79.9841833  75.5459738  21.7295790
  80.7569981  75.4088545  21.1816835  79.2524767  75.5592823  21.1126065
  19.0345240  24.2574477  29.8452616  18.3390641  23.7367535  30.2470636
  18.5753083  24.9774718  29.4129252  97.0771599  56.2086821  33.8325763
  96.8235302  55.3668070  33.4542227  97.8956032  56.0268593  34.2944574
 106.7809582  24.6786880  68.3409214 107.5075340  24.5145917  68.9420795
 106.5681458  23.8173676  67.9816580  41.6190815  26.9955492  90.2085781
  41.2135077  26.1514378  90.4066181  42.3147345  26.7866445  89.5851612
   7.2304040  72.9031229  35.1114130   7.4712086  73.8267326  35.1834154
   7.5348455  72.5116968  35.9301519  30.0312090  73.8914108  21.4237905
  29.2567897  73.8805771  20.8613062  29.8275256  74.5382261  22.0993471
 108.9503384  55.9485626   5.2814281 109.2133427  56.0831308   6.1918944
 108.8617134  54.9993563   5.1955187   9.7011983  60.1110697  67.7231169
   9.3904591  60.2230597  68.6215210   8.9116096  59.9132299  67.2194910
  91.4003468  32.8919530   9.3497819  90.7090092  32.6607442   8.7294364
  92.2014236  32.8939366   8.8258570 102.2192669  78.2088327  32.2154498
 102.9578781  78.4348249  32.7807975 101.6578579  78.9838982  32.2335696
  82.4339867  51.2653065  31.1739612  82.2973537  50.3393412  31.3743377
  83.3778477  51.3939476  31.2678623  18.0862832  38.9873743  24.5731497
  18.8650477  38.5550213  24.9236178  18.4253299  39.5970416  23.9177227
   0.7477024  68.6963844  26.1552238  -0.0172370  68.1218767  26.1875176
   1.4599007  68.1304264  25.8574033  15.4296839  69.2172670  58.9470339
  15.9791446  69.7426748  59.5286465  14.8349547  68.7518311  59.5351648
  13.4084940  69.1819334  25.3022647  13.1696022  69.9839163  25.7670093
  12.5843263  68.8643885  24.9332905  85.4993534  28.6603904  88.6154938
  85.3030491  29.0791631  89.4535446  86.0981369  27.9476261  88.8383579
  85.6527615  46.6173840  11.8021154  84.8331356  46.1935949  11.5474594
  85.8032990  47.2751665  11.1232233   4.0150788  35.6798673  19.1680610
   3.8525322  34.7617149  19.3844163   3.9000741  35.7262683  18.2189286
   4.8022500  26.7100096  17.3799264   5.1564038  26.9437146  18.2379413
   5.5744147  26.5808225  16.8291962  77.6631021  69.9059486  32.8754520
  76.7455959  69.6994066  33.0536342  78.0523968  70.0329924  33.7406373
  12.1463943  76.1177683  34.2458963  12.0308936  75.4438496  33.5760307
  11.5565503  76.8232298  33.9801168  39.4494057 103.9161015  86.5006638
  38.9364529 103.3480263  87.0754719  39.8351979 103.3209229  85.8578873
  33.0857873  97.5751209  84.8957825  33.7335777  98.0233955  85.4395199
  32.4009609  97.3090839  85.5093479 105.3081989  88.8855743  13.9357424
 105.1070690  89.4534874  13.1919277 106.1461735  89.2102623  14.2652833
   9.4741857  87.7076435  19.8916268   9.2853469  88.6440754  19.9522245
   8.6832446  87.3280907  19.5087600   1.3483645  99.3692589  40.1784086
   0.9088643  99.9981117  39.6060371   2.2804746  99.4932270  39.9994230
 104.6328163  57.0502377  22.9496312 103.8714123  57.6298571  22.9727387
 105.2645683  57.5067329  22.3939943  92.5698471  64.7520638  40.5357456
  91.9617462  64.7347450  39.7967339  92.9271221  65.6400776  40.5311775
   7.6358980  38.2148600  29.6903610   8.2260382  38.6707735  29.0902686
   6.7740262  38.5901856  29.5099735   8.0845439  55.3592205  84.2248917
   7.4848467  54.6503019  84.4573402   8.4835160  55.0754261  83.4023857
 101.8526363  79.1186523  11.8636930 102.2021961  80.0015163  11.9844961
 101.7861843  79.0151739  10.9144247   4.5472059  71.4752436  17.2843063
   4.3409210  70.5546141  17.4459136   3.6948511  71.8945646  17.1664369
 104.6658707  60.0828505  10.0904262 105.0940228  60.6481504  10.7333529
 105.2695751  59.3486977   9.9773169  12.3921597  59.1809607  60.9812641
  12.2258866  58.4856653  61.6177750  12.8493822  59.8579931  61.4800692
 111.6080856  22.0899630  41.6171932 111.7679691  22.8175068  42.2183132
 110.7128620  21.8117666  41.8106174  98.9167023  60.8506775  55.7698870
  99.5843601  61.3960600  55.3539371  98.1773281  61.4422464  55.9099197
   2.7576986  38.2974672  77.2196388   3.4803471  38.9124417  77.3454094
   1.9774914  38.8503170  77.1764374  93.2762814  53.9837646  64.8925447
  93.7272167  54.3354177  65.6601524  93.9521599  53.9418077  64.2160416
  20.9730506  39.2841291  14.2459643  20.9948659  39.1898346  15.1982582
  21.2886572  38.4433484  13.9147365 109.3134117  43.2195568  31.7209053
 108.8955021  42.6186895  31.1040258 110.2422142  43.1908655  31.4912724
 103.8827419  39.7929859  23.0540442 103.8392925  39.2873979  22.2424269
 104.8182392  39.9369144  23.1967735  93.9553356  55.6412506  36.6124463
  94.8242474  55.3262234  36.3634586  94.1240025  56.4429474  37.1074891
  93.0136871  51.2437439  19.7757185  92.6996517  50.9607792  20.6345224
  92.9607201  50.4586315  19.2307162   6.9226748  54.1833067  37.0539904
   7.6029897  54.4913244  37.6527619   6.6424412  53.3447838  37.4208498
   1.0859120  80.3595257  31.8707180   1.8420324  80.0900555  32.3921585
   1.4649716  80.7705975  31.0938215  67.9342556  50.4957294  27.2108793
  67.9320240  50.3169107  26.2705326  68.8587713  50.6107140  27.4306226
  92.9677296  67.4917030  47.3791170  93.5978508  68.2105112  47.4290562
  93.2476425  66.8800735  48.0601406  68.9152145  52.4446869  25.2557111
  68.7829351  52.7700853  24.3652892  68.3350992  52.9815769  25.7955694
  82.3110962  52.5011587  53.7850428  82.6867962  53.1007004  53.1403494
  82.0902252  51.7169189  53.2826281  89.4863415  45.6642437  43.5379696
  90.2967834  46.0988522  43.2724190  88.7989712  46.1239195  43.0558348
  11.3209343  84.8654175   6.9085097  10.4694796  85.2693939   7.0760339
  11.2559330  83.9965534   7.3048300  75.5340528  21.3915348  65.9492683
  76.1105299  20.8530474  66.4914227  75.7120848  22.2894788  66.2289619
 104.3172073  61.0439777  42.7067900 104.3265438  61.0076475  41.7503262
 103.5741806  60.4962492  42.9600430   1.9060783  54.6938419  57.0977259
   2.5723159  55.1910448  56.6232252   1.1098903  55.2183056  57.0125246
  88.4948444  48.3616018  55.3477955  88.5568428  49.3150139  55.4060745
  87.9351711  48.1125736  56.0833120  67.0077515  42.4796534  85.3199768
  66.7789364  41.9300222  84.5704460  67.4860001  43.2164097  84.9395847
  64.4557381  15.1222968  91.3716030  65.0252819  15.5660319  92.0000553
  63.7390137  15.7386565  91.2211514  25.4607224  52.0518494  50.1947737
  25.5707502  52.9986191  50.2828121  25.2819300  51.9170094  49.2641401
 105.9627438  96.1536407  12.5258732 106.2658596  96.2295628  11.6211116
 106.4588451  95.4173756  12.8836870  38.5092402  55.6083584  89.1554737
  38.4230638  55.4539919  88.2147408  39.2049599  55.0124884  89.4332314
 101.8004990  83.7290096  27.1440530 101.6976261  84.3603039  26.4319324
 102.6202393  83.9798069  27.5699091  85.5868816  60.3695345  15.4218698
  85.6831264  60.9883165  14.6979392  84.6739292  60.0857735  15.3746331
  52.8963852  14.9965644  61.4014769  52.7403975  15.8865106  61.7175388
  53.4698105  14.6053851  62.0605612 102.7261543  66.4271593  72.2388649
 102.9425430  66.4286232  73.1712818 102.5064659  65.5158234  72.0453978
  16.7230761  57.0561695   5.8733279  15.8902991  57.4537754   6.1275470
  16.9784558  57.5231361   5.0777411  81.4397621  15.2963507   2.7504009
  81.1737156  15.5205488   3.6421320  82.0491219  14.5661521   2.8586939
  85.3446770  56.9188166  61.8660069  84.9066448  56.0720158  61.7806149
  84.7473907  57.4448919  62.3977232  82.7918720  93.1996441  46.0329342
  82.6970863  94.1313648  45.8351088  83.6355495  93.1344032  46.4803600
 103.4144115  43.5120010  50.2274799 103.3364487  44.3851185  49.8430014
 104.0948772  43.0820656  49.7094631  60.0657940  82.5897408  38.5283113
  60.4568815  82.6103210  39.4017291  59.1529131  82.3452854  38.6803460
  83.4073925  72.4700069  36.2767863  83.4578133  72.5487089  35.3241611
  83.6815739  71.5709352  36.4576840 102.1479988  40.7735777  91.4387894
 102.0109940  39.8512673  91.6551399 101.9722080  41.2399578  92.2559929
 101.9822598  62.8676796  75.4063606 102.3792934  62.2311068  76.0008144
 102.7260876  63.2988596  74.9856138  96.6679001  49.5754004  16.6579032
  97.1131516  49.1713190  15.9131193  97.1510410  49.2642164  17.4233913
  99.8969555  90.1629543  33.0529141 100.3864670  89.6559715  33.7006688
  99.0739727  90.3800869  33.4908581 111.9409180  37.2706389  41.2710190
 111.3702488  37.1773791  40.5082130 111.5015984  36.7735052  41.9610119
  99.4186687  34.9552488  30.0836396 100.1019859  34.8596501  29.4201851
  98.9826679  34.1033292  30.1029038  97.7451229  96.3391018  18.8629282
  98.1189251  95.4827499  18.6551774  96.7984486  96.2032127  18.8232601
 107.9850864  42.3803377  29.0634680 107.5273037  41.5406227  29.0241218
 107.7303410  42.8299904  28.2577682  85.7961178  35.8509493   6.2422216
  85.0578690  35.2941179   6.4895076  86.5665340  35.2968431   6.3673955
  92.5257301  33.8605785  32.8669405  91.9605732  33.3221960  32.3128891
  93.4131527  33.6630774  32.5674319  80.5333900  18.5775483  47.6434708
  80.0174427  19.0948033  47.0250273  81.2738323  19.1411436  47.8678274
 101.9616222  65.3270626  31.2330484 102.4780273  65.9682035  31.7214155
 102.3816013  64.4877815  31.4213514  20.8501506  30.0142026  11.6492355
  21.1609674  29.5793557  10.8551753  20.7831931  29.3120098  12.2962844
  68.1884623  53.7950420  29.5064783  67.4730921  53.2088900  29.7532558
  68.0105352  54.0187216  28.5929489   4.1748026  53.0264997  32.1945024
   4.7912309  52.5426102  32.7441406   3.8527828  53.7300920  32.7579665
 104.4549942  65.5960417  36.1632586 103.5437584  65.8709431  36.0616398
 104.6848774  65.8540630  37.0558977  81.8574715  25.1714420  87.2728825
  82.6770401  25.3907466  86.8296623  82.1311569  24.7568679  88.0910873
 101.8561554  65.9090519  25.3395700 102.0537472  66.0951948  26.2574697
 101.1002636  65.3226757  25.3714371  96.5496540   8.0552036  66.5226889
  95.6629086   8.2952452  66.7915678  96.9752312   8.8902181  66.3280821
  70.6136322  27.4007273  87.4261761  71.3762856  26.8544292  87.6163197
  70.9802008  28.2019448  87.0521355   0.5443460  36.5882683  21.9969440
   0.3459627  36.0768890  21.2124920  -0.2006262  36.4343500  22.5779414
  84.0156937  50.2483177  61.1111736  84.1575432  51.1717844  61.3193130
  84.6787643  49.7832203  61.6213274   7.4972218  72.6767206  24.5433569
   7.3654491  72.9905796  23.6487293   6.6218805  72.4301672  24.8420572
  29.8937082  81.3509560  12.5181091  30.5278254  81.3014603  13.2334244
  30.3043056  81.9272614  11.8735003   6.6657966  75.1956272  36.4313626
   6.6824186  74.6602631  37.2246718   6.3421202  76.0475540  36.7240763
  71.8082714  70.3109980  10.4195976  71.2700605  69.7798347  11.0064757
  71.8564939  71.1660767  10.8470833 103.2453156  48.0441523  47.5800800
 103.7217426  48.2960558  48.3711481 103.9161587  48.0061150  46.8983555
  80.1795387  52.3137712  55.6032228  80.8392143  52.3074627  54.9096680
  80.4231739  51.5835714  56.1721516 106.7520428  55.9959602  57.5633383
 106.8235493  56.9174480  57.3143864 105.8243656  55.8736324  57.7650070
 106.8658257  49.6446657  44.5683002 107.7221775  49.5009518  44.1655159
 106.9633770  50.4647064  45.0522947  37.7057600  56.5538597  18.2033730
  37.2441816  56.8115711  17.4053979  38.5618520  56.2532949  17.8984129
   0.5906987  91.6174507  10.8937562   1.1995006  92.0592594  10.3018177
   0.7098746  92.0601177  11.7340362 107.7324677  67.0657158  33.4074783
 107.9660320  67.6488781  34.1296935 107.2026253  67.6081944  32.8233504
 109.3816280  66.5534830  12.1912360 109.3311501  67.4684525  11.9146299
 110.2515411  66.4688969  12.5815320   3.9723888  56.4378834   3.6737892
   4.5437899  57.1973515   3.5600442   3.4703389  56.3918734   2.8601179
 109.8402500  38.0640554  20.5872440 110.2266407  38.7269163  20.0149274
 110.5857086  37.6872969  21.0547590 109.3078995  48.1304026  24.7612023
 109.9109268  48.6995173  24.2829728 108.6656952  47.8574610  24.1059923
  96.7905045  30.0331354  26.6662431  96.6311550  30.8670259  26.2241268
  97.7407360  29.9979615  26.7759776  99.6567917  74.2972755  55.2881765
  99.8213673  74.9145842  56.0009718  99.9952793  73.4623337  55.6114817
  51.5771437  28.4996271  59.6329975  50.9987020  28.7333918  58.9070559
  51.0652637  27.8849840  60.1587582  38.8876247  68.2845688  22.5603747
  39.2370152  68.1235552  21.6838837  38.9942813  69.2267418  22.6913810
   3.4173456  57.2591639  14.1616082   2.5717786  57.0387888  13.7708592
   3.2301545  57.3636150  15.0944972  64.1859531  11.0831475  84.2122173
  64.4274378  10.6284583  83.4052658  65.0175095  11.2276995  84.6637249
  13.5024023  76.0285091  16.4680445  13.7426019  76.9549751  16.4539838
  13.8439798  75.7051420  17.3017061  14.5739758  45.8599901  10.9656584
  14.9396682  45.8674622  10.0810993  13.6391568  46.0227537  10.8397436
  18.7279510  63.0081701  61.2970781  17.9117167  63.3555794  60.9374952
  19.3988943  63.2736158  60.6681061  96.8836498  62.3788023  50.9757614
  96.4440441  62.7842331  51.7231607  97.8083420  62.3611927  51.2224579
  14.7498798  59.3592262  33.5206175  14.4118428  58.6420679  34.0569448
  14.8394215  60.0921965  34.1296911  90.6991577  48.1453705  13.2328129
  90.9721470  47.7691889  12.3960364  91.2110329  48.9503288  13.3119094
  88.1678391  48.4161472  44.5428944  88.2100105  47.9675531  43.6983728
  88.7434387  47.9069853  45.1135635  90.3361320  53.8783789  49.2815495
  91.0863304  53.4648180  48.8544559  89.5736790  53.5136366  48.8322592
 109.6447277  62.7598381  64.8883677 110.3955555  62.6485252  65.4715395
 109.9981976  62.6099682  64.0115404   9.1068715  45.1887703  12.4248683
   9.0708864  44.2962646  12.0808208   9.2538071  45.7368708  11.6540098
  44.2092419  95.1658916  91.9054031  43.9122152  96.0630035  92.0576668
  44.8991537  95.2504635  91.2473011 101.4162064  59.8135710  46.5232563
 101.2048912  59.1990423  47.2260571 102.3656464  59.9223852  46.5776682
  63.2428503  34.7666407  90.3370953  62.9583406  35.3708124  89.6513367
  63.5187483  33.9810872  89.8648453 108.9960384  34.6334958  11.3564205
 108.0947018  34.8449898  11.1133289 109.4614506  35.4680204  11.2999165
  78.4247494  71.1938143  66.5080404  77.5578165  71.5995932  66.5094852
  78.7063694  71.2337542  65.5940819  18.6575294  69.7678232  58.1082296
  18.2694852  70.6273317  57.9442120  18.2012415  69.1801643  57.5059938
  91.2034416  78.1684732  24.9958158  91.7795277  78.0212831  25.7459474
  90.6035900  77.4225950  25.0045085 111.8570518  48.8546324  10.9925437
 111.0044384  48.8041878  11.4246774 111.9462776  49.7750902  10.7455003
 112.8033658  33.2661009  20.6603098 111.9349899  32.9413056  20.4222703
 112.6775362  33.6840343  21.5122080  40.7536268  88.4354019  50.1755810
  40.5636358  89.2800713  49.7673416  40.0835991  87.8459549  49.8293877
 103.3075237  67.8211784  32.4563861 104.1409588  67.3505497  32.4674797
 103.5538769  68.7426949  32.3766541  98.5670662  40.9209633  22.3296261
  99.3823051  41.4076567  22.4510384  98.7945652  40.2216768  21.7168689
  88.3521175  87.4680614  14.4475877  87.9538918  88.2891846  14.7363746
  89.0907097  87.7388382  13.9022624  10.1290548   7.7510011  23.1149888
   9.8260629   8.4618318  22.5500560  10.8307254   7.3317116  22.6169062
  44.3430567  37.7937484  85.8821106  44.7575903  38.0453634  86.7073822
  44.6152544  36.8864870  85.7441998  22.5409222  73.9160109  10.8797014
  23.1010270  74.6650124  10.6759584  23.1272507  73.2850409  11.2972236
  22.4288940  85.1405716   8.4297419  21.4937234  85.3438568   8.4487230
  22.6097679  84.9304104   7.5135821   5.7046533  66.0492420  37.4567819
   5.2691448  66.9005680  37.4992537   6.5595603  66.2366199  37.0691538
  15.3261566  68.7056684  71.8174124  15.3237402  69.2404461  72.6112843
  14.5861995  68.1087112  71.9285011 100.7986450  30.4479194  52.8980780
 100.1357079  30.6807446  53.5481024 101.2947845  29.7380137  53.3056498
 102.6205444  36.7880106  11.7745042 102.0628548  36.9092226  12.5429583
 103.4940910  37.0451069  12.0695651  24.5734906  76.3543940  18.5071456
  24.9535728  77.0644474  17.9898512  25.2364945  75.6642008  18.4901011
  92.0016861  46.6124916  24.2324686  92.3547649  47.0680237  24.9967051
  92.5737572  46.8754101  23.5114670 102.5711536  86.7141914  50.5618668
 102.9696751  86.0771275  51.1547947 102.2981930  86.1976242  49.8036575
   3.8337177  41.6314840  -0.1105012   4.7550324  41.7484522   0.1212946
   3.6005324  40.7791281   0.2573940  99.1195679  59.8123407  61.7657280
  99.0981865  60.1345205  62.6668215  98.4283447  59.1510820  61.7313337
   8.1438220  75.0974035  12.4325752   7.6700312  74.2656898  12.4295378
   7.8429323  75.5415630  13.2253063   3.3762205  87.6339722  89.5246315
   3.3012441  88.4876919  89.9509811   2.5569871  87.5358105  89.0394020
   2.0087725  80.2213192  19.4140661   1.4316502  80.8091354  18.9265919
   1.5799020  80.1143265  20.2630973  23.2018924  83.6170197  22.9684210
  22.5919223  83.1853676  23.5666275  23.9920807  83.0778408  23.0018473
   4.2437282  51.2967968  45.9979820   4.2206949  51.7851257  46.8209219
   5.0858730  50.8420372  46.0128164  98.1350613  98.0876637  54.2115116
  98.7575912  98.4669971  54.8318386  98.6228943  97.3849106  53.7821054
   5.8773053  45.3657436  39.6358800   6.2265342  45.4292536  40.5248308
   6.6525036  45.3495264  39.0745997  41.7951202  32.5741458  92.0822430
  41.8956375  32.2434568  91.1896229  42.0840406  33.4854269  92.0340157
   8.0976135  41.4253473  53.9170408   8.8805294  40.9367895  54.1711760
   8.4339869  42.1939516  53.4562445  87.9052734  63.5160017  29.5836782
  87.8743076  62.7834272  28.9683652  88.4491062  64.1721010  29.1477728
  69.1516638  71.7515469  52.5232983  69.5482969  72.5325823  52.9091692
  68.2193756  71.9604397  52.4646425  82.5742149  55.9417963  55.6948090
  82.8510094  56.5635443  56.3678932  82.9566860  55.1077318  55.9673548
  30.2242255  49.5327854  11.6521049  30.6741118  50.0712252  11.0010183
  29.8970032  48.7817478  11.1570239   3.6735016 101.5435123   5.7774097
   2.8515688 101.7602634   5.3373253   4.1134369 102.3859119   5.8916175
 112.0761882  94.7764683  13.9878190 111.4804789  94.6885777  13.2437503
 112.7596727  94.1262817  13.8255322 104.1975594  81.8272591  76.3928223
 104.4903564  81.8194962  75.4815340 104.2645359  80.9146404  76.6736841
  22.1075940  99.6725082   0.9952696  21.7912531  99.2645645   0.1892063
  21.4429045 100.3272343   1.2091931  80.0753975  83.8185215  40.7504797
  80.7746029  83.9325809  41.3941669  80.5282211  83.7888718  39.9076867
  80.2448750  31.7854786  89.9071693  80.1325417  32.7339101  89.8431873
  81.1711121  31.6404295  89.7141075  14.5544624 102.0986462  55.2286720
  13.6278832 102.2494602  55.0417709  14.6325064 102.2291565  56.1737156
 107.5713921  14.8483706  27.2556520 107.8326893  15.3411329  28.0335569
 107.0913506  14.0949643  27.5994229  50.6648207  47.3662472   9.8218882
  50.7849693  46.4905739  10.1892996  51.2412024  47.3866177   9.0579510
  92.7756596  78.1515121  40.3577614  93.3094406  77.4409246  40.0022745
  92.5502205  78.6857796  39.5962071   0.7445152  63.8467407  47.8466797
   1.5029116  63.8038826  47.2642469   1.0424754  64.3715477  48.5896683
   5.9983116  77.9203033  36.7003655   6.2112099  77.7309179  37.6141691
   5.0470567  78.0265760  36.6931272  63.4657764  95.9913254  21.0598421
  62.9273844  96.7709732  20.9237599  64.1878843  96.0875511  20.4389286
   2.9466593  74.9323273  51.4894533   3.8272148  74.9947977  51.1193848
   2.8147751  73.9958191  51.6370630   6.3493294  53.1007671  55.1000643
   5.5767012  52.5903416  54.8576880   6.2656313  53.9134550  54.6013021
  75.2426386  65.9057331  60.9867668  74.4752502  66.1805058  60.4849243
  74.8837662  65.3969955  61.7138290   5.5256659  79.1122341  14.1012311
   5.4367787  79.8754072  14.6721017   6.2858641  78.6431265  14.4451320
  81.9588184  55.8411026  20.2240968  82.6513767  55.7252073  19.5735884
  81.6111279  54.9602175  20.3633046   5.3231984  62.0810556  24.7646070
   4.4504476  62.1730661  25.1467991   5.8964580  62.5680876  25.3565598
  76.2479258  61.8868685  31.2217951  75.4812479  61.7339945  30.6694627
  76.0007238  61.5356255  32.0772195 106.5208721  62.7367735  46.9449568
 106.4603043  63.5437965  46.4338064 106.3902855  62.0373440  46.3046598
  95.7162571  84.4255066  50.5766630  96.4955807  84.9685955  50.6947184
  94.9922752  85.0505257  50.5387115 108.3420849  58.7620497  26.2855268
 107.9076004  59.5929718  26.0931134 107.8240871  58.3792543  26.9936085
  10.5604434  79.7786427  36.6697240  10.2922583  79.7920561  37.5884891
  11.5167379  79.7498226  36.6997528   8.5877848  83.6215496  43.0233240
   9.3812168  83.3582497  42.5570965   8.7995988  84.4795799  43.3909512
  27.3465037  68.8982630  51.2125206  28.0142760  69.3900347  50.7345295
  27.7255297  68.7612867  52.0807409   7.2747076  48.0790615  37.5427747
   7.8592813  47.7757025  38.2373810   6.7376250  47.3154974  37.3312426
   8.9756262  54.8070574  19.9603069   9.8209345  54.3579865  19.9647057
   9.0519828  55.4544401  19.2593825   7.2376591  82.9686069  47.3980331
   7.3442870  83.0836105  48.3422995   8.0832350  82.6327419  47.1006680
  89.2675400  85.8797741  38.2613254  89.1478157  84.9342918  38.1721735
  89.5953083  86.1612892  37.4071908  89.2547512  53.1162405   7.1925747
  90.1516628  53.0974007   6.8587816  89.3461132  53.3718681   8.1104732
  70.6929541  70.5453300  29.3328881  70.4012012  71.2586308  28.7651587
  70.0997305  69.8214579  29.1320848  17.6268137  76.7910576  37.3333097
  16.7469513  77.0564556  37.6009631  17.7805877  75.9684420  37.7979422
 110.0838184  77.2977209  23.9118671 110.5495834  77.9725266  23.4179759
 109.2753410  77.7240705  24.1961503  99.6060848 104.4169807  11.5650785
 100.1328087 105.1855946  11.7842031  99.5418739 103.9286995  12.3858690
 100.0118637  54.8834467   8.1904685  99.4104290  55.0275469   8.9210421
 100.0035954  55.7094908   7.7069229 106.0080910  47.7341557  64.3192244
 106.5396595  47.0610666  64.7442245 106.3528633  47.7840996  63.4276676
  92.4981403  88.1229401  23.4314656  93.1285572  88.2805920  24.1342878
  92.7231598  87.2542667  23.0982900  24.0530920  96.4258385   9.6689159
  23.6312485  95.6504917  10.0392115  23.3273840  96.9725037   9.3676966
  16.4311779  58.3551598  22.7501845  16.8663037  58.3402252  21.8977308
  15.8219755  59.0914249  22.6952624   1.9719014   2.4723531  37.1669006
   2.1234649   1.5698458  36.8862939   2.5724533   2.9930559  36.6335750
  73.9524984  11.6373301  89.5888329  73.5244656  12.0183599  88.8221264
  74.8744822  11.5711319  89.3402386   7.5307202  69.2514515  11.4569342
   8.1423730  69.8492479  11.0271084   6.7022002  69.3845510  10.9964228
  17.1458423  76.1941528  34.7334409  16.4584982  75.5435228  34.8765302
  17.4162304  76.4545250  35.6139684 103.9882755  67.5195694  44.0486717
 104.6213341  68.1964302  43.8092518 103.8202763  67.6671934  44.9793816
  83.4819992  56.9565631   0.4952034  82.7479370  56.8504576   1.1002907
  83.1702001  56.5803919  -0.3279034 100.7362080  65.2574587  64.2014790
  99.8485947  64.9041557  64.2610884 100.6168365  66.1528111  63.8847351
 107.5069618  75.2391291  23.9025068 106.8034172  74.7254372  23.5057974
 107.9317284  75.6744623  23.1633949  73.5770988  69.5554113  36.5938926
  72.7361441  69.6868372  37.0317888  73.4547758  69.9319649  35.7224131
   8.2028902  92.8638458   4.3199915   8.3699667  93.5994339   3.7307340
   8.7359649  93.0502129   5.0928617 110.3570747 103.5594940  55.5742025
 110.6478977 104.4441509  55.7956409 109.9884701 103.6416721  54.6946526
   1.0522788  78.3718252  51.2730074   0.8722232  78.4358168  52.2109365
   0.2057577  78.1580734  50.8806515 112.0750237  66.3452387  48.6368990
 111.8774509  65.4863739  48.2633448 111.6860390  66.3213968  49.5111752
  12.2739041  56.4861107  29.3781376  11.9415414  57.3772860  29.4857097
  13.1700695  56.5227175  29.7124720  29.2433047   0.3551035  51.9243002
  28.9130425   1.2278691  52.1374607  29.0213442   0.2339048  51.0011101
  18.8800275  81.3257408  12.1145999  19.1839969  81.6417027  11.2637198
  18.9688683  80.3740978  12.0623910  59.8426723   2.7501109  48.8665390
  59.6313334   3.2453606  48.0751514  60.6779814   2.3268157  48.6682653
  40.5423164  92.2188282  41.8455601  40.3640366  92.7285480  41.0552168
  40.1880455  92.7504253  42.5583935  35.5998564  51.9805717  66.9982243
  34.6699834  52.2028923  67.0445156  35.6493402  51.2950468  66.3320065
  72.7108765  10.4101264  57.4388885  73.0531693   9.6546715  57.9167557
  73.4040880  11.0672295  57.5014019   0.8508392  46.2572908  87.0460987
   1.0227334  47.1411324  86.7212868   0.2789795  46.3871479  87.8026390
  76.9102716  17.5908458   4.0071452  76.5117598  18.3135283   3.5222232
  76.2120819  16.9406617   4.0847299 102.5635245  69.1766997  91.4760634
 102.2740033  69.3737288  92.3668997 101.8350270  68.6908837  91.0893989
  77.9845190  22.8224897  54.0784883  77.5256348  21.9986677  54.2427206
  78.9120293  22.6003432  54.1597700  49.3987179  71.6498137  33.1071258
  50.1592922  71.0771656  33.2062888  48.7504053  71.1106443  32.6541114
 100.5634212  73.9218616  62.7668285 100.5937004  73.4467983  63.5972643
  99.7540283  74.4308949  62.8114653 112.3654842  51.8963623  81.8552399
 112.0945835  50.9829903  81.9479656 111.5602589  52.3987913  81.9793606
  51.9876623  99.4935513  38.1611443  51.8552017 100.2709103  38.7037301
  52.8896332  99.2275810  38.3398604  36.9951797  17.2620845  18.8047612
  37.4639273  17.8773546  19.3686318  36.7248631  16.5566754  19.3926036
   1.0996097   7.3327500  60.6826162   1.1338481   7.3216122  61.6391420
   0.7302307   8.1888592  60.4661274 107.0854568   8.2678974  39.5099974
 107.8980350   7.8721958  39.8252249 107.0887470   9.1500288  39.8815703
   5.7674843  97.8094292  32.3725414   5.8285540  98.6654758  31.9486451
   4.8519880  97.7411079  32.6435208  72.8541136  12.7414560  52.4172544
  72.3427629  12.9452872  53.2003307  72.3774767  12.0238423  52.0000315
  70.8998442  16.2549698  24.8463321  70.9887600  16.1823094  23.8960433
  70.6775093  15.3696609  25.1344728 101.2971306   0.8309501   7.0730162
 101.1019039   0.6733399   7.9967463 101.2480736  -0.0343942   6.6668093
  23.5894608  70.5129433  19.5950675  23.0225706  70.3736877  18.8364661
  24.2197990  71.1723948  19.3051839  22.8319955  87.3629379  69.9712610
  23.2224226  87.6480961  70.7973862  22.2051239  86.6851425  70.2239561
 103.2010460  57.3786831  83.0037022 103.8573742  57.1180010  83.6498451
 103.0444431  56.5872145  82.4886417  18.2638812  28.2790685  90.7844734
  17.9778719  27.6556849  90.1167679  18.3018231  29.1191530  90.3272533
  48.8602114  37.9419422  15.2465010  47.9565001  37.7959204  15.5261636
  48.8204193  37.9268193  14.2902482  59.0313435  13.3855307  13.0358505
  59.3873024  12.6499724  13.5343301  59.8023558  13.8432968  12.7008474
  47.8397274  12.3419702  30.6583452  48.3769274  12.3762584  29.8668456
  47.1630239  13.0041158  30.5173969  48.4401512  91.1350727  21.8007541
  48.7892485  90.6208611  22.5287318  49.1348410  91.7604065  21.5943933
  25.0403285  64.0677547  60.1106691  25.9307480  63.7553930  59.9499941
  25.1433992  64.7592068  60.7645082  29.2751479  89.9220467  33.0713582
  29.7115564  89.6701050  32.2575355  28.7072682  89.1798115  33.2783175
 103.2703114  11.1075556  21.0570216 102.7898407  11.2186372  21.8774128
 104.1821671  10.9974027  21.3265157  45.7504225  37.2376871  33.6069679
  45.4487991  36.4309192  33.1893778  46.6599941  37.0584488  33.8452744
  66.7870569  12.1682155   6.1954176  66.5386963  11.7729044   5.3597879
  67.3573256  11.5191114   6.6073531  99.6390724   5.6893849   0.7913101
  99.4594002   6.5278566   1.2166539  99.2233276   5.7626700  -0.0677693
  38.8743448  88.9117336  34.1818404  38.1602097  89.3383217  34.6554112
  39.3774796  89.6340179  33.8058233   0.7828755   8.7883490  35.1076412
   0.4199648   7.9404891  34.8513985   0.9520853   8.7027663  36.0458708
  16.7631161  52.6117516  76.6084385  16.8951261  51.6636992  76.6075468
  15.9275055  52.7376461  76.1588430  38.6859679  73.8936710  28.3244014
  37.9980254  73.8802624  27.6589775  38.9634871  72.9807425  28.4004188
  62.6628828  87.4541283  22.9550695  62.3748446  88.3168411  22.6567745
  63.3318377  87.1929169  22.3222184  89.3885269  46.7545717   0.0683197
  89.7003188  47.6356141   0.2751621  88.5091749  46.7172162   0.4445919
  68.7178230  35.1698399  80.7716370  69.1860723  36.0005236  80.6883335
  67.7923775  35.4135895  80.7524300  72.5734949   3.8727307  47.6572657
  71.7617941   3.5157493  48.0177450  72.6933336   4.7047609  48.1150818
  71.8018913  11.5769982  10.3545272  72.1302080  12.1397388   9.6532691
  72.0629263  12.0220184  11.1607838 101.5175533  28.4883094   2.3144177
 101.7762566  27.6898623   2.7746192 100.7922649  28.8385534   2.8316388
  69.4136429   9.5343113  34.1029668  68.7114716   8.8991392  34.2434859
  69.7159243   9.7559392  34.9837279  31.8304205  86.9617748  50.8828878
  31.6866064  87.6416206  50.2245903  32.2602034  86.2525654  50.4048252
   1.8691848  21.3485217  30.6744719   2.8143251  21.2729454  30.5432105
   1.4865050  20.9758282  29.8801875   8.5514295  92.4421310  73.9575958
   8.3316994  91.7864704  74.6194649   9.2269695  92.0253658  73.4226322
  23.1062102  99.4246578  26.1151838  23.0950904  99.9885464  26.8885827
  24.0271878  99.1886997  26.0040331  58.3093929  25.3777885  33.9321136
  57.6910496  25.1372957  33.2421517  57.7659082  25.7732892  34.6136093
  36.5957952  75.4801798  65.1548100  36.1920929  76.3399839  65.0365448
  36.8231606  75.4481077  66.0840607  19.4352973  13.8817000  88.4564495
  18.8259113  13.5316598  89.1063404  18.8786125  14.1457593  87.7239227
  11.8305421  99.8714638  15.8389890  12.7754176  99.8401260  15.9888577
  11.5215635 100.5787468  16.4051354  98.0298042  16.8298078  11.5984476
  98.3477211  15.9287584  11.6556108  98.5386848  17.2186637  10.8870661
  70.0999689  38.4625149   3.5919273  70.5084848  39.2159176   4.0182236
  70.6225348  37.7131796   3.8776705  52.0745897 104.8512363  33.9751148
  51.2010813 104.5182419  33.7693834  52.3566198 104.3338585  34.7294450
  82.9351330  12.4723101  11.1409891  82.0076180  12.3757339  11.3568830
  83.3882141  11.9210494  11.7790020  64.0412760  20.1389670   5.3066015
  64.6530294  19.5464683   5.7435626  64.2352247  20.9997654   5.6776005
  45.8173704  93.3186531  12.5076544  45.6602955  92.8352165  11.6965735
  45.5056095  94.2045498  12.3226655 103.2439137  10.5129290   4.2314088
 103.4281826  11.1319578   3.5249528 103.2783699   9.6533394   3.8117048
  59.1487885  74.0950298  66.8699551  58.5732603  73.6131859  66.2759590
  59.9242258  73.5402632  66.9546127  75.0411034  29.2899966   5.4940033
  75.8879519  29.4192386   5.9210509  75.1501322  29.6749616   4.6244365
  67.4880362  46.4782953  12.8148520  66.7999792  47.1204329  12.6403105
  68.0325222  46.4907265  12.0276952  40.3160524 102.5892162  12.7272701
  40.6683064 101.9446087  13.3409798  40.5155325 103.4353352  13.1279194
 101.4263916   6.2189883  17.2106063 100.9878731   5.5074435  17.6771271
 102.2699738   6.3115889  17.6533556  45.3442192   1.2493844  85.0767326
  44.7229052   1.0527398  85.7778263  45.9124804   1.9268143  85.4433346
  99.2714500  84.0093422  88.6688614  98.6325550  84.6782970  88.4227848
  98.9909649  83.7178612  89.5363808  20.7119536  90.3170586  79.7026300
  20.6768990  89.4232655  79.3618250  21.2392139  90.7965374  79.0636253
  69.0621185  19.5319366  36.1371326  69.7285080  20.0517368  36.5865397
  68.6450768  20.1470804  35.5338883  23.2816005  50.3248978  80.6405354
  24.0700984  49.7823763  80.6538105  23.5408759  51.1350536  81.0794640
 102.1252441  23.1974220  32.4894118 102.4508858  24.0658712  32.7260256
 101.6901588  23.3262110  31.6465926  81.5718174   4.0699589  40.2521086
  82.3691654   3.9217162  40.7605171  81.0992622   3.2389155  40.2999783
   1.9845846  71.3661671  13.3110106   1.3825879  71.0972881  14.0049398
   1.7094922  72.2550440  13.0863941  99.6763325  32.2184920  10.2459419
 100.2304649  31.4515066  10.1013589  99.4745159  32.1952677  11.1813366
  10.9433138  47.1841764   1.1317231  10.4394555  46.4664745   1.5154634
  11.4849722  46.7656183   0.4626619  79.7898865  16.9858360  28.4872341
  79.6857119  16.1293900  28.0726528  80.7001877  16.9996977  28.7828541
 104.4993591  88.7197590  75.4388189 103.8576889  88.0170345  75.5421400
 104.2666245  89.1365433  74.6091461  89.3770027  14.3379533  26.0341358
  89.1831684  14.7689807  25.2017450  89.0790367  13.4365225  25.9121656
  66.9870472  28.9783955   9.4328302  66.5848255  29.7991204   9.1484755
  67.9149437  29.1895580   9.5360351  89.3147087  16.6009212  33.7099981
  89.7675323  15.8803642  33.2718372  88.3856010  16.4267612  33.5594559
  63.1636620  84.2427158   4.8836249  64.0620184  84.5028877   5.0873333
  62.6287508  84.9818039   5.1731986  66.9450808  58.5521555  11.2505329
  66.0480452  58.2598114  11.4120770  67.0855045  58.3900118  10.3176761
  72.4595976  19.3778646   2.0117180  71.6281462  18.9572704   2.2308400
  72.2447348  20.3074241   1.9343844  62.0097303 105.0919533  23.7471104
  62.7201796 105.7136726  23.5891318  61.4779043 105.1289177  22.9521108
  82.0301247  19.9005663  17.2834504  81.9280338  19.3868470  18.0846381
  81.7084122  19.3265843  16.5882695  26.7083073   8.7491018  82.7953529
  26.1964464   9.1065425  83.5209370  27.6100254   9.0049535  82.9894638
  74.6727753   4.6132854  24.3546748  74.4382095   3.7058955  24.5492387
  73.9500618   5.1293594  24.7118688  89.9378014  29.3104267  25.8202100
  89.1338348  29.3757558  25.3048444  90.5658054  28.8908195  25.2321887
  73.1993723  10.5356693   7.7078098  73.9588881  10.0125670   7.4514359
  73.5384607  11.1448419   8.3636737  86.5401936   7.5733346  30.7225180
  85.6402493   7.8704238  30.8569622  87.0569229   8.3786589  30.6966162
   5.1182789  25.4570913  35.4046893   4.6099660  24.7232151  35.7500553
   6.0298717  25.2145600  35.5672002  81.6401672  34.9755406  19.5224237
  80.9404659  34.6534586  20.0906754  82.3041630  34.2864895  19.5460200
  96.7682743  18.3249378  25.1121140  96.2753677  18.9933276  24.6361637
  97.0786095  17.7267385  24.4323492  55.8714867  42.5772333  20.5881691
  56.7883539  42.8519726  20.5984187  55.8990526  41.6610670  20.3122926
  63.4669638  46.9453621   3.0330917  63.6977196  46.4920902   2.2222105
  63.2781363  46.2425852   3.6549282  27.4670172  82.0540714  82.8736019
  28.1480646  82.6692390  82.6016140  26.6535974  82.5549221  82.8125381
  52.2119379  98.6281109  19.6999657  52.2251844  99.4856262  19.2748547
  51.4621162  98.6666679  20.2936912  74.5001221  40.4767895   2.4483927
  74.5801258  39.5394754   2.2715470  73.9160442  40.8008862   1.7627922
   1.9920708  39.2247796  43.7709475   1.2294191  39.7691488  43.5753489
   2.6494783  39.8408246  44.0942717   9.1669798  90.0371170  87.1170712
   8.6558849  89.4760418  87.7003479  10.0716543  89.7496605  87.2402191
  42.7353573 101.0023689  34.5949793  41.8505096 100.8899403  34.2476535
  42.6072836 101.4232063  35.4451132  10.6512117  13.7820303  17.5333393
   9.8958713  14.0295875  17.0000398  10.2826834  13.5882127  18.3952284
   8.0983442  10.3398061  30.0519133   7.5758719  10.1397347  30.8285904
   8.5033393  11.1849105  30.2468705 111.5775394  51.4189148  10.4021001
 111.3267803  51.6546249   9.5089054 110.8613873  51.7464161  10.9462512
   3.4404951  53.5814667  68.3984852   3.6586541  52.6695585  68.2059622
   4.2485684  54.0633726  68.2223749  10.6763172  87.4662018  78.9690542
  10.6515825  87.1653938  79.8774195   9.7588122  87.6166725  78.7415123
   1.8928610  30.4656625  31.3175511   1.7967890  29.8052907  30.6313205
   1.7914474  29.9781108  32.1350121   3.0428526  31.8299842  25.8397460
   3.0091506  32.1094108  26.7546320   2.7043796  30.9346843  25.8501339
 104.3229771  28.8554931  23.8558507 104.9763393  28.6932373  24.5363116
 104.3202305  29.8066354  23.7483668  83.8276863  78.2649279  61.5968513
  83.9275074  78.5980463  60.7050514  83.9857197  77.3239851  61.5201426
  15.2252448  10.3769243  47.0746803  14.7858667  11.1928737  47.3142767
  15.7424867  10.1477516  47.8467989  56.0550117 105.1134205  60.5117989
  56.3075972 105.9967613  60.2432060  56.7180014 104.8595238  61.1538363
  75.7842255  99.9630451  41.9538784  75.6803894  99.0840912  41.5893364
  75.5297756  99.8730564  42.8722382  11.4346039  69.4010592  57.3567247
  11.1063254  70.2891207  57.2159767  10.6476748  68.8738918  57.4948168
  92.6892090  29.0601444  32.6550984  93.2479954  28.5337520  33.2268524
  91.8023491  28.7464952  32.8321004  95.0713253  88.0700397  88.7770081
  94.5461082  87.7994251  89.5300961  94.4321060  88.2187366  88.0802155
   7.6809460  84.0780449  64.1868448   8.2073832  84.8000526  63.8436127
   7.9443300  84.0045452  65.1041555  24.1266131  14.2909074  16.0312486
  23.5255575  15.0313854  15.9496558  23.5703421  13.5592127  16.2984896
  82.4275112  16.7629695  13.9694726  82.1972179  15.8739138  14.2392504
  82.0516777  16.8524432  13.0936992 104.5962238  42.5739288  23.1135893
 104.0178585  43.0047083  22.4841881 104.6757507  41.6764259  22.7904868
  26.6637206  92.5084782  38.4333062  26.8354654  92.0335197  39.2464209
  26.5251303  93.4143448  38.7097549  77.3821163  13.3745027  26.1193013
  77.0345497  14.1941857  26.4707923  77.4524355  12.7982652  26.8803787
  21.2321973  99.6576595  86.1791229  21.5911317  98.8142300  85.9033871
  20.6701279  99.9277020  85.4529095  84.2591190  53.5302114  16.0227227
  83.6005878  53.6495256  15.3383708  85.0572968  53.9105415  15.6559753
 106.7395401  52.3911142  17.7505958 106.9168568  51.4526606  17.8145933
 106.8438721  52.7161074  18.6448705  73.5205507 102.7106380   2.3213626
  73.3203459 103.0804634   3.1812334  73.6978197 103.4717655   1.7686535
  98.7261486   0.6273781  28.6087918  98.6231518   0.9398073  29.5076871
  99.5512772   1.0129377  28.3142781   8.1787914  16.7412007  66.5445852
   8.0468225  16.4959145  67.4603605   7.3560059  17.1570551  66.2870550
  13.3330309  32.9791474  80.9987164  13.0102277  32.4803948  81.7492390
  13.5835636  33.8273931  81.3647079  49.2775822  81.4754581  92.0149899
  49.6836185  81.9544029  91.2925148  48.7657213  80.7879543  91.5888882
  71.6078997  39.5337033   1.1274481  72.1363068  38.7837601   1.4005846
  70.7055378  39.2682815   1.3050270  93.9438057  59.1864634  82.8242397
  94.4560814  58.4146643  82.5831223  94.5889282  59.8902798  82.8928089
   0.4163534  46.1987257  82.3930645   1.1991865  45.8368015  81.9778347
   0.6266386  46.2158394  83.3267212  98.0527115   8.7274498  29.8369718
  98.6928368   9.4040716  30.0575495  97.3491383   9.1994554  29.3915081
  84.3092728  30.1457977  17.7285445  83.3657932  30.2921915  17.6603699
  84.4506168  29.2961764  17.3109329  91.0707760  22.8036213  33.6969233
  90.9343815  21.8718219  33.8683128  91.4768982  23.1373525  34.4968724
  66.9506025  42.3263121  11.1103427  66.1559582  42.8086233  11.3387227
  67.0349884  42.4383640  10.1634765 105.3684044  25.7038069   6.6038460
 104.5215893  25.3654480   6.8947983 105.9634399  25.5164337   7.3298287
 103.1997967  16.0741162  21.1784196 103.9764881  16.5199137  20.8404136
 102.8891659  15.5443466  20.4441953  90.6538868  13.7649298  19.4890571
  90.4635906  13.5776591  20.4082680  90.8439445  14.7028792  19.4700813
 101.2200642  47.4430847  34.9730420 102.0103550  47.5869083  35.4936075
 101.4300537  46.6889477  34.4222093 105.7578754   3.4293330  21.0456777
 106.2685585   3.7437499  20.2996373 105.2154636   4.1769755  21.2967777
   6.4310193  53.4923172  15.0065970   7.1280766  52.8364706  15.0211573
   6.2594283  53.6388540  14.0763736  52.8285027   9.6544856   0.7689007
  53.0160570  10.5902731   0.8421036  52.9889870   9.3086463   1.6468939
  84.8182774   6.1310035  52.2200871  84.0962029   5.9244096  52.8135204
  85.5210972   5.5362445  52.4818754  85.2006912  45.8236361  14.4768155
  85.4661655  46.1404848  13.6134732  84.8399639  44.9525118  14.3117392
 102.9305172  24.4313383  28.8006043 102.6857567  25.3564787  28.7796187
 103.3091927  24.3034363  29.6703601  21.5373063  34.5084429  85.6384563
  21.5459085  35.3444791  86.1045074  21.8305302  34.7246408  84.7532940
  79.5410919   1.7632233   9.5707756  80.4292679   2.1183440   9.6063477
  79.5385790   1.2015659   8.7956846  90.9498119   5.5487543   8.8315821
  91.5570831   4.8228413   8.9747787  91.0523701   5.7676768   7.9054147
  86.8780041  13.2023287  30.2396417  86.8578911  13.4343684  29.3112111
  86.2436295  12.4903178  30.3223681  15.8155155  53.4884214  62.0080090
  16.4139199  53.9798164  61.4452648  15.7362425  52.6335955  61.5846682
  70.6897211  17.4082136   2.8834212  70.2131271  17.3792005   2.0538118
  71.2086058  16.6038835   2.8898105  64.3282890  27.5062537  53.7914467
  64.4325113  28.1200409  53.0643749  63.3914137  27.3106861  53.8073730
  86.8102646   1.0470022  39.5783830  87.2388458   0.5519199  40.2765512
  86.6852570   1.9215356  39.9468899  63.0221319  16.1003900  25.1947927
  62.1231031  16.3947415  25.3408527  62.9889536  15.1533079  25.3295779
 103.6920547  13.7109673  48.2742167 102.9256821  14.2303431  48.0310059
 103.9336872  13.2499361  47.4709129  45.6974649  91.4396000  45.7276869
  46.1759329  91.8363953  44.9997854  45.9605885  90.5193710  45.7139635
  82.2030735  46.0614586  26.4365077  81.6863728  46.8659878  26.4811635
  82.8239346  46.1350060  27.1613169  22.4384761  49.2583323  23.2210135
  22.7079320  50.1748562  23.1609058  23.0302501  48.7953186  22.6280093
   6.8445265  61.1201763  67.0173264   6.6442096  60.7031775  67.8553057
   7.0976341  62.0137835  67.2489214  94.3321896  12.8492069   2.9819781
  94.2824841  13.3211255   2.1506807  95.2700233  12.7429235   3.1413576
  73.1805325  16.3752580  13.6717343  72.8943014  17.2041929  14.0553641
  72.4302387  15.7904422  13.7779748   1.5520428  97.1334743  91.6044235
   1.5649185  98.0366325  91.9212341   1.9691356  97.1755314  90.7439041
  80.7747364  14.8284757  36.8949008  80.1258183  15.4730082  37.1772408
  80.2684498  14.1736150  36.4142108  11.3280797  28.2411599  39.8817778
  10.4493070  27.8658581  39.9378085  11.4941382  28.5937285  40.7560492
  27.2682309  25.6461978  30.5691886  28.0050683  25.5193663  31.1668634
  26.7221045  26.3046551  30.9986186 110.1868057  24.8853755  19.2017651
 109.6609211  25.2885723  19.8924971 109.9181747  25.3370070  18.4017050
 100.3320217  46.6183710  16.1182749 101.0361576  47.2629166  16.1888802
 100.4529095  46.2252951  15.2539206   1.3645762  23.9228892  11.9831824
   1.4518580  23.8047576  12.9290473   0.7305447  23.2573462  11.7161858
   9.6821600 103.1797028  90.0860691  10.5178154 103.5050011  89.7512627
   9.0630186 103.8893700  89.9149990  32.8982043  40.6296778   5.5370140
  33.5326886  41.2001610   5.1031804  32.0650911  40.8299017   5.1103193
  69.5830536  47.3990631  14.4445169  69.1196012  48.0994129  13.9852250
  68.9747763  46.6601133  14.4306886  98.8774681  15.5535424  22.9258347
  99.2108059  14.9154615  22.2949839  99.5805836  16.1976731  23.0092525
  17.3021626  41.5781021  26.4695764  18.0540240  41.9901037  26.0439086
  17.4738002  40.6388283  26.4022136  51.3404703  31.5569067  33.7432361
  50.5152035  31.0738897  33.7863445  51.1147785  32.4425530  34.0277052
  97.8664494  28.3949828   5.8746004  98.1268597  29.1054702   6.4607936
  96.9343472  28.2679892   6.0515040   2.0048641  15.6534541  20.2669597
   1.0487314  15.6808627  20.3028893   2.2853005  16.4236152  20.7613659
  34.1522336  55.3435564  23.2233691  33.3710098  55.4007816  23.7735009
  34.3225408  56.2463188  22.9545760  92.1222591  29.1724634  18.9404047
  91.7682743  28.3154798  19.1781116  91.8008423  29.7619748  19.6226048
 101.0339069  31.8920398  29.6181536 100.1797676  32.1512604  29.9638176
 101.3173008  31.1787438  30.1901031  72.7836514  47.7938604  17.8490281
  72.9923487  48.6856794  17.5709343  73.6226225  47.3335648  17.8269196
 105.8433151  44.9821615  32.9490948 105.7436562  44.0365839  33.0594492
 105.2419758  45.3627110  33.5892487  14.0922642  69.0128851  85.9468365
  13.5169566  68.8701725  86.6984272  13.4964252  69.1077662  85.2037334
  17.9915106  82.7853107  76.8954945  18.7532675  82.9470062  76.3388872
  17.9690802  83.5322475  77.4936771  25.0583005  85.4542637  45.2516794
  24.9435043  84.8451138  44.5223045  25.1782799  84.8918247  46.0168552
  58.7546349  36.5102267  85.6245804  58.0261183  37.0054007  85.9991360
  59.5319080  36.8633342  86.0574818  97.2989941  34.7258544  22.8735328
  96.5128136  34.6131134  23.4078097  97.0424271  35.3555012  22.1997714
  98.7257481  31.6912222  42.4952650  98.0653000  31.0518503  42.2283459
  99.0240955  32.0840645  41.6749668  10.1975036  46.3502789  14.9792147
   9.5287281  45.9852791  14.3997777  10.9003556  45.7005167  14.9729574
  82.1344280  14.5784795  44.9608564  82.0995045  15.1496685  45.7281590
  81.2893105  14.7048545  44.5295334   4.5093942  63.1024122   3.9163530
   3.9312810  63.1209517   4.6790278   5.1779819  63.7604761   4.1065484
 108.5212803  29.5705819  30.1217747 108.6171246  28.6770368  30.4513550
 107.9108524  29.4913101  29.3887496  94.6474457  30.3690505  11.2762439
  93.8240528  29.9629760  11.0053825  94.4022560  30.9509277  11.9956434
  10.4698431   8.8632691  39.1502428  10.1110697   8.6401904  38.2913184
  11.3401985   8.4649384  39.1570640   6.6802973  57.9990911  17.8215766
   7.1972126  58.3034039  18.5675132   6.5299433  58.7858152  17.2974658
  89.7447681  49.2572117  34.2865252  89.0878582  48.6739874  34.6667266
  90.2145672  49.6128941  35.0408506  83.5786438   9.8496115  42.8409910
  82.9609299   9.2535651  43.2645321  83.0431557  10.5938649  42.5660896
  70.7217884  29.8377228  26.8131399  71.2931442  29.4589138  27.4811864
  70.7867908  30.7828164  26.9502735  17.9048538  81.4347839  29.1112614
  17.6087928  80.8598423  29.8169684  17.2329593  82.1144676  29.0582657
  95.2861977  58.0603981  19.5802212  95.9288025  57.7643108  20.2249074
  94.5656967  57.4347448  19.6554387   5.6205922  26.5312099  27.3650432
   6.4467674  26.9671893  27.1562648   5.1991951  27.1087098  28.0015588
 111.0254288  11.1565864  34.2894363 111.9278717  10.8397400  34.3275142
 110.5328465  10.4310668  33.9057565   9.2948502  26.0091972  10.0486887
   9.6664017  26.2291360  10.9029770   8.4595817  26.4760160  10.0234199
  92.7606583  44.4573069  18.9128506  93.3642101  43.7155247  18.9542294
  92.1767902  44.2505980  18.1830549 100.5691242  39.7777581  10.2370262
  99.7367573  39.3267012  10.3782451 101.0626030  39.6278429  11.0433972
  88.6078835   9.9376005  13.2948685  89.0468979   9.9575841  12.4445200
  89.2358971   9.5122200  13.8787150  60.5850887  81.5815544  35.8840632
  59.7122860  81.2438011  35.6831384  60.4623461  82.1073246  36.6744590
  12.4206376  35.0763988   4.3848482  13.2219923  34.8903346   4.8741764
  12.2754073  34.2919636   3.8558874  85.4455853  65.0738382  11.6511405
  86.3905239  65.0792789  11.8037891  85.2238083  64.1476440  11.5551841
  67.0414019   8.3271867  12.2730625  66.5432882   7.5098544  12.2639048
  66.5055370   8.9284658  12.7903092  78.6707354  48.9141750  26.4868450
  77.8015327  49.3136168  26.5209436  78.5892010  48.2184887  25.8344650
  21.4444590  13.5933423  12.9129088  21.1219597  14.1272664  13.6389601
  21.2640929  12.6919913  13.1798649  32.0243979  19.9787664   9.7139043
  32.5989461  19.2719555   9.4197232  31.8818879  19.8003864  10.6434762
  17.3713398  34.0884018  31.7720318  16.9275689  33.6523676  32.4994731
  16.8565261  34.8804498  31.6175723 104.6952057  50.7721281  30.1569724
 105.1724625  50.6335688  30.9750533 104.6061707  51.7227983  30.0896859
   9.5285583  35.0569034   4.1754043  10.4284310  35.3700924   4.2669109
   9.6008193  34.1035819   4.2222080 105.8071995  55.7006454   7.7296162
 105.3985214  55.5786514   6.8726826 105.8383179  54.8217201   8.1074363
  58.0510616  26.7952609  15.5826688  58.7847710  27.2653699  15.9787703
  57.5052452  27.4820709  15.1997674 111.7736530  76.2375736  77.3955774
 112.6677418  75.8959293  77.4064016 111.4935780  76.2046242  78.3102942
  97.0138359  51.5075874  14.2472029  96.6186619  51.1198997  13.4663272
  96.5307617  51.1206388  14.9773729   4.6672699  76.0288191  41.2089777
   3.9815438  75.9009600  40.5534887   4.6296889  75.2412319  41.7516756
  20.4399538  60.8132696  24.9603486  19.6838343  60.2412367  24.8288345
  20.5637813  61.2447405  24.1149306 103.5656166 105.7627583  90.9783649
 104.0142727 104.9186611  90.9289169 102.8429413 105.6145096  91.5882778
  82.7819061  15.0956762   9.7892284  82.5669384  14.3930554  10.4026985
  82.2084904  14.9418378   9.0383899 100.8914375  50.1948214  30.0251412
 101.6854000  49.6840525  29.8671174 100.6191254  50.4892683  29.1560149
  96.5669155  34.5857334  44.2302179  97.4661446  34.8573112  44.4142723
  96.0470581  34.9934578  44.9228430  96.4943695  41.5745258   9.2428064
  96.3790226  42.2240639   8.5492462  96.7452621  42.0868540  10.0114453
  17.2884023  16.1101937  47.7154875  17.9098248  15.6256270  47.1721077
  16.4300227  15.7799542  47.4502325 107.5837517  66.0757971  29.0178561
 107.9658794  65.7171011  28.2168913 107.7232933  67.0201731  28.9477420
  21.3599944  59.7947693  15.5950999  22.0406866  59.1261053  15.5190623
  21.6218901  60.3181028  16.3525712  79.6061325  13.3244216  24.3302369
  79.1507673  13.0113840  23.5486484  78.9224100  13.3858728  24.9973011
  84.6391010  51.5359449  28.4563422  84.9662590  50.6364679  28.4444547
  84.8036289  51.8388700  29.3493152  64.5323610  25.5969071  33.5425639
  64.2445183  24.8203325  34.0224743  63.8962841  25.6895781  32.8333020
  89.2481518  25.5543852  46.6920757  88.5955334  26.2424445  46.5620804
  90.0494766  25.9083486  46.3063002   1.2647283  41.8865204  37.0996451
   2.1572313  42.1005011  36.8278289   1.0717943  41.0592985  36.6583896
  67.0029020  35.5686951  24.6567416  66.1899996  35.2424026  24.2707920
  67.1765327  34.9748492  25.3871036  98.2005692   7.7860171  45.7576752
  99.1464138   7.6423025  45.7269335  98.0562019   8.2553613  46.5793228
  65.4348230  92.2517872  32.0861816  64.6077061  92.7323532  32.0520282
  65.9792328  92.6640415  31.4154410  96.4475060  47.8759003  19.9929869
  96.3294315  47.1468210  20.6018662  95.8024883  47.7189207  19.3033981
  10.2548218  34.9492884  67.3297930  10.0379932  34.3167377  66.6448832
  11.0486889  35.3811526  67.0143509 105.2142143  16.2580955   8.6854988
 105.8878326  15.6000578   8.5138839 104.5216084  16.0620368   8.0545545
   2.2622387  66.5111876  34.6429634   1.9907683  67.2122383  35.2354717
   3.2176888  66.5054893  34.7005367  94.5436096  60.7263327  18.3856738
  94.8693371  60.1204205  19.0512538  95.0582123  61.5230608  18.5146749
  37.3698235  84.2947292  87.5961494  36.6038418  84.4095707  88.1585693
  37.4174571  85.1045322  87.0880318   2.1336614  10.2213109   0.7921729
   2.6890892  10.3638959   0.0257518   2.2901471   9.3087262   1.0349328
  73.7178993 104.0808105  62.6989794  74.3493271 104.6078014  62.2092724
  73.3450460 104.6871853  63.3389187  80.2266598  32.4825454  24.1280842
  79.6956730  32.0866656  23.4370255  81.1240959  32.2239256  23.9184308
  79.9999142  23.2019305  46.6357231  80.3837109  23.3026886  45.7646418
  80.7349014  23.3233500  47.2367907   6.2308043  41.5810537  48.5038948
   5.9155393  40.6930876  48.3354950   7.0073116  41.4599180  49.0503311
 103.2873154  50.5710268  12.3132837 103.2804585  50.6845045  11.3628578
 102.9522610  49.6850395  12.4511325   6.3461053  41.1643887  16.5837753
   7.1477163  40.6967449  16.8182075   6.5092760  42.0686960  16.8518078
 107.1822643  49.3216801  30.9372663 107.6967049  50.1181412  31.0685134
 106.9323444  49.3474579  30.0136256  76.6271591  51.8180561  13.8968539
  75.9240913  51.7293692  14.5403266  77.3456955  52.2241783  14.3816280
   3.5515994  21.5192032  17.5874996   2.6563936  21.6375399  17.2699547
   3.5686982  20.6247592  17.9279518 110.3509426  22.5892282   6.1906654
 109.4590187  22.9039288   6.3378757 110.9095669  23.3197260   6.4562666
  99.0244865  41.8473625  41.9256210  99.1995144  42.6766348  42.3704815
  99.5019913  41.1951160  42.4382639 108.3282566  66.5016890  58.6374426
 107.4509525  66.6280460  58.2760525 108.2313442  66.6863394  59.5716524
  94.0563488  50.2346611  28.7016368  93.5152912  49.4719887  28.4971309
  93.6804867  50.9423113  28.1779981  88.7354374 104.8372364   7.3538399
  87.9759979 105.1418304   6.8571490  88.5724640 105.1367188   8.2482582
 105.6990910  36.8486857  16.2668526 106.2554741  37.4024749  15.7191443
 106.2266254  36.0670304  16.4310014  75.4524946  87.7192020  21.7085361
  75.4743767  87.7402973  20.7518172  75.2704477  86.8044662  21.9238305
  80.3358841  57.6568508  18.9035368  80.9825611  57.1145630  19.3551636
  79.7019577  57.0313835  18.5525858  84.6122742  57.6507711  58.8264036
  85.4742146  57.2506523  58.7114954  83.9949512  56.9302845  58.6997318
  81.6932201  35.6811953  32.0892739  81.8177414  35.9647417  31.1835551
  82.3872948  36.1248994  32.5767326 106.1020279  22.4567151  39.1402364
 106.5097046  23.0823684  38.5414124 106.8258190  21.9082832  39.4428444
  87.1990204  32.6751447  33.4631371  87.0117855  32.7405834  34.3995643
  87.1398735  31.7391109  33.2718968  36.2022924  93.7947178  17.7167571
  35.6413269  93.9783478  16.9632137  36.9998622  93.4257221  17.3373389
  29.1424346  70.3944063  88.4766483  28.4909678  70.8764982  88.9859676
  28.6776400  69.6165085  88.1683159  65.4216433   0.7431823  75.1448584
  65.9111118   0.9284027  75.9463263  65.9828186   1.0684399  74.4409275
   3.6559805  21.6780019   3.4398291   2.9074302  21.7737222   2.8509814
   4.3532458  22.1862459   3.0254129  61.5380716  11.8700457  49.2420292
  62.0361519  11.3681781  49.8872280  61.3344193  12.6939094  49.6847534
   5.6916034  49.1852665  42.0138121   5.2061367  50.0039148  41.9119692
   6.5075111  49.3294334  41.5344954 110.0576401  68.5907173  68.8824892
 109.1820908  68.9356041  68.7072611 110.4441166  69.2177153  69.4938326
  83.1341648 102.3880100  21.9948125  82.3597145 102.5994587  21.4735174
  82.7917194 102.2081089  22.8703713   7.8092098  23.7400889  39.8529649
   7.4232286  24.1766477  40.6123543   8.7168300  24.0437794  39.8378015
  14.8560846  32.4060273   2.9998612  15.6165767  32.8425741   3.3836740
  15.2097392  31.6053247   2.6125172  98.3242607  61.8315268  25.8660841
  97.7410126  61.3101006  25.3145719  98.3280945  61.3763094  26.7081046
  57.8769779  37.7184844  13.1148922  56.9719410  37.7380729  12.8038299
  58.1020927  38.6382484  13.2548630  19.9206555  41.5809870  14.1224897
  18.9993906  41.4211655  13.9176464  20.2877355  40.7094860  14.2707241
  36.4337444 104.8809719  59.2309570  35.6594491 105.4073906  59.4298840
  37.1372724 105.5210018  59.1231012   0.9043211  58.1681204  41.9077969
   1.4963260  58.9153957  41.9934893   1.4481939  57.4729252  41.5374756
   9.0416896  46.4802599  44.1862535   8.2250303  46.9795609  44.1858768
   9.6322948  46.9875193  44.7431326  42.1901846  31.5802741  78.1034946
  43.0599928  31.4483619  78.4806824  42.0695591  30.8361506  77.5136137
   9.1166264  44.5751429  57.0155334   8.6728126  43.8369656  57.4330902
   9.6037042  44.1829491  56.2908459  34.2390776  29.0017438  18.1997406
  34.3437862  28.1558084  18.6352420  33.7328029  28.8044047  17.4117208
  96.6292763  51.3008261  39.7616720  97.0689011  52.1265841  39.5589828
  96.6749287  51.2329769  40.7153749  19.7401619  59.2603064  28.1161022
  20.0215292  58.3620358  27.9423952  19.3382835  59.5481586  27.2964263
  93.6712456  85.2574539  13.0520654  94.3742943  85.4229164  13.6802244
  93.0594826  84.6901226  13.5212290  92.4467373  25.8797717  74.7977209
  92.0003891  25.1921606  74.3035555  93.3729076  25.6415963  74.7565174
  15.1817012  43.0371571  18.2501173  14.8417032  42.8105068  19.1157186
  15.9652138  43.5570478  18.4291422  99.7307587  55.4766846  34.9751353
 100.3126717  55.3839636  34.2208076 100.2984619  55.3407097  35.7337236
  26.2572503 102.6051998  81.0217762  25.5968618 103.2415581  80.7476139
  26.1255264 101.8572235  80.4391766   0.7496572   4.7503904  19.4744372
  -0.0371960   4.3743166  19.8689783   1.2590519   3.9926720  19.1870153
  12.5285411  53.3146477  30.1866221  12.8123093  54.2030191  29.9709725
  12.3549938  52.9061508  29.3385410  18.3500433  88.3596611  84.9092484
  18.2271278  88.0226231  85.7966805  18.2081616  87.6009750  84.3431187
   1.3068411  35.5434895  33.0214143   1.6623372  34.9891782  33.7161016
   0.8431356  34.9366069  32.4444389 100.1950741  41.4699841  35.3974366
  99.7610950  40.6951475  35.0403333 101.1017227  41.3952732  35.0997281
  19.1477752  67.5919247  13.0391634  18.2671344  67.2391033  13.1665146
  19.6623254  66.8460655  12.7306867   7.2879642  26.3775039  16.3415015
   7.6600158  26.9411182  15.6631589   7.8720224  25.6196880  16.3701653
   5.8400244  53.7974405   1.8046966   5.3776252  53.4176159   2.5517938
   5.3995299  53.4300280   1.0384030  10.5052733  57.1208286  44.8237228
  10.3385043  56.1981058  44.6313524  10.8022773  57.1259022  45.7336664
   0.4372842  55.6600142  43.4449673   0.2164770  56.2752581  44.1442156
   1.3133457  55.9227180  43.1625986  44.0662622  98.5066795  78.4600210
  43.6546803  99.2778301  78.0699492  44.5362520  98.0937767  77.7355528
 105.0304031  64.2208385  23.0773473 105.9719753  64.1491175  22.9207659
 104.8044205  63.4195328  23.5496593  95.3202915  17.1949184  78.7829494
  94.8444653  17.0715249  79.6042871  95.6195450  18.1036174  78.8137054
  44.8693562 102.5629234  66.6387558  45.1055670 103.1841278  67.3276329
  45.3820610 102.8407001  65.8796692 100.6286430  89.5046997  15.9104049
  99.9288559  89.4873333  16.5632665 101.3110161  90.0476646  16.3051045
  65.8379412   7.9007590  83.3384418  65.3763199   8.2787943  84.0869331
  65.4436302   7.0358533  83.2257938 101.0182476  47.3436022  28.3109522
 100.6501389  48.0465794  27.7756476 101.6541862  47.7813625  28.8767982
  91.1730480  30.3739476  35.7182741  90.8850861  30.9402156  35.0022793
  91.0939980  30.9188724  36.5012407  72.7450895  26.4057994  76.3644552
  73.3442640  26.9349766  76.8909454  72.2491169  27.0441413  75.8518505
  86.3245201  87.0289040  17.1261370  85.9958649  87.9227829  17.2220981
  85.5699348  86.4738560  17.3230183 100.2410221  53.8313532  23.1148911
 101.1449718  54.0204477  22.8631806  99.8111153  53.5842228  22.2961497
 107.3270798  76.2485886  75.8837032 107.0506763  75.3919077  75.5582190
 106.5478802  76.6057301  76.3097620  13.9265430  11.0457301  38.9990330
  13.2536399  11.5299082  39.4775748  13.5711646  10.9518552  38.1152201
  83.3642292  45.3624392  11.3504004  83.0550480  45.7004070  12.1908832
  82.9307175  44.5139074  11.2593591  -0.1553604  81.5122318  60.9071779
   0.1460494  81.6894436  61.7982340   0.5009838  80.9161663  60.5464172
  36.1489654  66.0789967  41.0270596  36.6947174  66.8441343  41.2085819
  36.6504359  65.3399754  41.3714504  98.6144352  63.0150223  34.8208165
  97.7864075  62.5353622  34.8440194  98.5182095  63.6236572  34.0883303
  18.2788515  61.1111832  20.9871030  17.9219759  60.2284670  21.0854959
  18.9869368  61.0136652  20.3504419  83.0860996  40.5743074   9.0909916
  83.6419868  41.1956358   9.5612770  83.1280613  39.7728848   9.6127087
  26.6790080  39.6772432  29.6676087  27.2368073  39.0892720  30.1769042
  26.0140300  39.9743128  30.2887249   6.8146133  63.4459066  56.2381887
   6.2874007  63.9124393  55.5896330   6.2091660  62.8177452  56.6319895
  45.1009464  82.1853352  31.7225862  44.5949650  82.0922375  32.5297713
  44.8354292  83.0347347  31.3700914  91.4424133  69.3884945  12.8646922
  92.2046280  69.9350500  13.0558360  91.6262245  68.5587025  13.3050275
  98.6169910  79.8592043  21.7248487  98.0382252  79.5993805  21.0080862
  99.3404388  79.2335463  21.6873384  87.7235222  95.7126045   8.6775285
  87.3076153  96.0254288   7.8741699  88.0858517  94.8583221   8.4426665
  46.5888786  87.6434040  89.7459793  47.1544504  86.8745899  89.6733093
  47.0476151  88.2214451  90.3556156  97.0458317  61.6666842  40.0949240
  96.9884682  61.5606165  39.1453481  96.8790340  62.5976229  40.2424479
  92.5430965  57.0982695  11.6918671  91.6787624  57.1398401  12.1010435
  93.0644417  56.5601015  12.2875249  91.3976955  76.1120653  29.1250110
  91.3042736  77.0484400  28.9497781  90.4990101  75.7848215  29.1637969
   0.9701029  44.3970871  20.7573032   0.0449972  44.5888138  20.6035113
   1.0150633  44.1616011  21.6839933   0.2874929  36.8363500  44.9925470
   0.8810980  37.3819089  44.4765711   0.7059843  36.7727423  45.8510685
 105.9997177  63.2633066  30.8420539 106.6991806  62.7130413  30.4896402
 106.4337635  63.8148165  31.4929509   8.7867367  22.1032476  20.5696702
   7.8597647  21.9619799  20.3773212   8.9494282  23.0104327  20.3112555
  44.4317484  56.8636894  50.1293373  44.9539948  56.1773443  50.5445766
  44.2580032  56.5324497  49.2482424  96.8933678  74.2801619  69.6599340
  96.6589355  73.7808561  70.4422188  96.1304855  74.2003632  69.0873241
  48.2333279  90.7425308   1.7313361  48.8982534  90.1681137   1.3516769
  48.5700083  90.9562397   2.6015121  10.8351469  63.3805943  72.4768448
  10.2731025  64.0899086  72.1650553  11.6785610  63.8002491  72.6464796
  68.5330582  15.0797129   7.8325725  68.9467239  14.9972498   8.6918235
  69.2520332  14.9743342   7.2095120  69.3730783  30.5677891   9.1350913
  70.3058195  30.3559089   9.1715211  69.2597151  31.2623429   9.7839200
  23.8195634  65.9386492  58.3528805  24.1663194  65.3336763  59.0086222
  23.9621043  65.4937506  57.5174284  59.3608618  99.8186874  14.2177188
  58.4235287  99.6587276  14.3274796  59.7195673  98.9706326  13.9562595
  47.5203705  90.4153538  11.6716647  47.0317364  90.1852894  12.4619412
  48.0257940  91.1895466  11.9194555  64.4022703  39.2364717  84.5615864
  64.0794134  39.5932269  85.3890610  63.7589550  38.5697842  84.3209553
  27.3134470  39.2204714  74.0182543  27.3189688  38.8054895  74.8808050
  27.2414565  38.4914327  73.4021759   0.8106466  37.9757023  79.6849060
   1.3277289  38.3689785  80.3878975   1.2806745  37.1720147  79.4626665
 105.6819725  64.5450735  90.1767826 106.2107754  64.1452074  90.8672237
 106.2654114  65.1845407  89.7682285   9.7265339  50.3281641  17.8912640
   9.5038873  51.0217094  17.2702551  10.6787872  50.3780031  17.9746974
  21.9277191  44.2130852  71.9737005  21.2808180  44.6037912  72.5611496
  22.5289011  44.9292946  71.7691183  26.3962841  97.2820854   7.9105544
  25.5643463  97.0533371   7.4960840  26.2995577  96.9924068   8.8177252
  97.6916027  50.8385086  73.1164122  97.1404076  51.5984440  72.9295683
  97.0832348  50.1761341  73.4441137  47.6987600 103.2249069   6.0802513
  47.2232580 102.5703907   6.5918636  47.1099472 103.4367752   5.3559309
  91.4281943  74.4725735  91.0261017  91.6218140  74.8289736  91.8931203
  90.4981759  74.6564157  90.8937977  78.5611439  50.5613708  18.4525847
  79.1919470  49.9530458  18.8376343  78.3788490  51.1908293  19.1502798
  97.2679424  78.3260870  91.0215187  98.0718613  78.5889149  90.5733395
  96.6032314  78.9336205  90.6970119  50.8453321  11.8625891   3.7895590
  50.3627729  11.6172910   3.0001324  51.0726643  12.7826321   3.6551246
  54.6163940 101.0187721   8.6701012  53.7562656 101.3126659   8.9701587
  55.1479769 101.8145561   8.6504066  52.6992702 103.5801220  10.8063447
  53.0468130 103.4460735  11.6880918  52.6106119 104.5297813  10.7256520
  71.3096952   9.1188943  18.1276989  70.6409311   8.5708356  18.5383260
  70.8685589   9.5108217  17.3740256  76.0849476 102.4929142   5.6169987
  76.9783020 102.2165585   5.4126072  76.1090660 102.7114487   6.5486079
   1.9967353  54.1126776  74.5957088   2.9188213  53.8878250  74.4714880
   2.0146839  54.9424553  75.0725555 108.7458992  34.8723173  60.9395170
 107.8626347  34.5474553  60.7647896 109.1653156  34.1701937  61.4368629
   4.0060329  43.1318235  83.6594486   3.7880623  42.2480869  83.9556408
   4.6165732  42.9977036  82.9345417  97.0625305  59.8428011  86.0728359
  97.5774956  59.3454885  85.4374409  96.3948822  60.2837372  85.5474377
  69.0246630  26.5891314  20.6949425  69.1746187  26.4588976  21.6313100
  68.6588860  27.4714017  20.6313896  12.2677362  79.0326452  22.8143430
  12.8478599  79.7270346  23.1266093  12.8583038  78.3239937  22.5588465
  88.7623310  16.1330473  23.9593744  89.1724396  16.9979417  23.9618301
  87.9386234  16.2598848  23.4885883 100.6386566  36.1381698  15.4913104
 100.2281857  35.2756500  15.5529773 100.7856464  36.3990259  16.4004755
  90.0567722   9.9397260   5.0274444  90.8912659  10.3861773   4.8841631
  90.1121902   9.6105349   5.9245479   1.8400344  84.5986652  70.1624918
   1.1076826  84.3050003  69.6205950   1.7287017  84.1303253  70.9898329
   5.3189462  74.8247528  85.9533882   5.1946735  75.6958294  86.3302422
   4.7872835  74.8300600  85.1574326  98.1549931  18.2434487  37.2984695
  98.8263702  17.7240396  36.8560910  98.3732414  19.1502452  37.0832539
   0.5017710  21.0664225  81.5725231   0.2974520  21.9775510  81.3619709
   0.9954515  21.1146832  82.3911667 106.7021275  53.5331726  81.2925816
 107.2104931  52.7432251  81.1088181 106.6289997  53.9733362  80.4457378
  32.9465842  16.0792601  71.2751770  33.7258172  16.5181398  70.9339857
  32.8537464  16.4148664  72.1667910  75.0284386  19.3941712   1.2952361
  75.1262522  20.3182435   1.5249254  74.0966702  19.2137682   1.4196768
  11.4684331  46.8436146  58.1123400  10.6062329  46.6044092  57.7723026
  12.0613778  46.1888123  57.7437258  30.8703494  56.5726995  83.7138367
  30.0348091  56.9666624  83.4630489  31.4886522  56.8801212  83.0509472
  84.9298477  44.6918344  73.3733034  84.0824413  44.4363213  73.7377739
  84.9055862  44.3794155  72.4688482  24.1582346  96.9525909   6.3066345
  23.3653522  97.4734402   6.1790216  23.8549566  96.0450077   6.2832028
 101.5089989  47.2397995  83.6772633 101.4452171  48.1663084  83.9091015
 100.6142426  46.9100142  83.7601757  92.9182434  22.3190570  23.5054278
  92.1935749  22.9382801  23.4179664  92.7941227  21.7017341  22.7845001
  63.1629610   7.7649009   5.3795135  62.2849941   7.7159762   5.7576776
  63.3960676   6.8546957   5.1967019  61.0131264   1.2096005  10.1902759
  60.5297852   1.0924412  11.0081315  61.2638664   0.3229211   9.9311221
  98.2288361  75.3539371  62.6118851  97.7418709  74.8718119  61.9435644
  97.8080463  76.2131643  62.6416874 102.7736664  21.6619706  50.3663540
 101.9701481  21.1994457  50.6043863 103.2906628  21.0135102  49.8883963
   5.1446581  56.8317509  61.8690300   4.1920596  56.8851376  61.9460917
   5.2963883  56.5442991  60.9687090  95.8019924  83.1964493  59.1618252
  96.3792896  83.0513668  59.9114323  96.3952637  83.3967972  58.4378624
  72.1241903  52.8776693   2.1339042  73.0037642  52.9461527   2.5052395
  71.5530777  53.2635021   2.7981305  42.7964067  76.5172291   8.8761336
  43.1144142  76.3751888   7.9845470  42.6245785  77.4577522   8.9221507
  52.6411295  10.0996506  82.8443241  53.4540367   9.6243393  83.0160522
  52.9076099  10.8415782  82.3013973  95.2337837   9.6910208  20.0807285
  94.7543430   8.8760078  20.2294683  95.3602409   9.7248799  19.1325235
  61.8996954  93.3661747   2.6205158  62.4848843  92.7817917   3.1024683
  61.1789036  93.5367393   3.2268190  79.2336464  36.3007569  27.5136423
  78.6749172  36.0498714  28.2492423  78.9132977  35.7762980  26.7797804
  61.7192602  62.2079420  12.8498876  62.1642923  61.3611841  12.8155863
  61.6987705  62.4302197  13.7806964 104.7080421   2.8454813   1.0073379
 104.3354225   1.9810221   1.1808316 105.4252625   2.6787946   0.3957558
  89.1862106  91.8603325  88.0374718  89.6106911  91.0256863  87.8389549
  89.7451973  92.5177956  87.6233387  47.1729517  69.1703367  90.9392452
  46.7106104  68.6635113  91.6067791  46.6586590  69.9725342  90.8486652
  67.0804453  82.5679016  65.1212835  67.3918295  83.4217548  65.4216433
  67.1166611  82.0123005  65.8998919  15.9437037  93.7542439  87.6337814
  15.6051290  94.0333271  86.7830658  16.8948889  93.7607288  87.5268459
  12.9268932  95.1584530  74.8921967  13.4126866  95.0587845  74.0734768
  12.7562976  94.2616844  75.1801729  75.8593941  71.7407560  66.4667702
  75.3241444  72.3985910  66.9106102  75.2613354  71.0093737  66.3130188
 111.1934757   5.1251829   0.4742015 111.6624832   4.4489518   0.9630550
 110.8870125   4.6803898  -0.3160304 103.2780361  74.0547419  74.3234158
 102.3227692  73.9965820  74.3412542 103.5741901  73.1455231  74.3664312
   9.4924951  37.6339912   9.6891612   8.9893389  37.0399356  10.2460837
   9.0888625  38.4909272   9.8269129   2.2973095  58.6026573  91.1065292
   1.6114321  58.5415697  91.7714214   2.4107744  59.5425272  90.9651184
  28.8760972  52.4795866  83.9640808  29.5942259  52.8124857  83.4258366
  28.8473749  51.5422964  83.7719917  75.1149416  53.3676100   8.5096741
  75.5514336  53.9364433   7.8755307  75.0319195  53.9058399   9.2968524
 108.7765026  53.5535049   0.4258848 108.9872837  53.4736824  -0.5044011
 108.2447243  54.3472910   0.4837275  42.6291084 102.5986481   1.2658840
  42.5767803 102.6863384   0.3141466  42.4985456 103.4876347   1.5958580
   9.0107751  65.1611900  74.5156384   8.9889789  65.1152754  73.5597849
   8.0901861  65.1443005  74.7772884  47.0659637  16.4960659  85.0931740
  47.4144793  17.1379817  85.7118034  47.8288603  15.9848106  84.8232841
  81.7506027  46.3859367  13.3665490  80.8772850  46.6467619  13.0741096
  81.9000340  46.8982506  14.1611767   4.7695485  79.3103504  67.1008682
   3.9529541  79.1513300  66.6274595   4.9911183  80.2191162  66.8976974
  17.4043155  58.7284517  51.4907360  16.8585575  58.3208704  52.1632385
  16.8176496  59.3382597  51.0433149 101.0011959  40.0736761  16.3301730
 101.3325405  40.9087324  15.9998286 101.2781811  39.4309139  15.6772065
  40.1831913  80.6744003  79.5235920  40.2554369  80.9400940  80.4403305
  39.7431946  81.4087391  79.0953588  95.9564400  43.0958033  19.4724131
  95.7132053  43.6799335  18.7541795  95.2694416  43.2219934  20.1268935
  95.2393818  23.4031463   7.9040349  94.4334793  22.9123616   7.7431482
  95.5635452  23.0644131   8.7385470 102.9327679  26.8255663  13.2385671
 103.7204933  27.3693562  13.2341123 102.5983334  26.8810868  12.3434126
  95.3986168  31.1354232   3.9941442  94.7965336  30.4946470   4.3724793
  94.8559093  31.6508389   3.3974487  75.4904556  30.9479880  33.0964804
  75.8473253  30.3286767  32.4598241  76.2600946  31.3115597  33.5343218
  29.3676209   1.8601225  74.9501705  29.5155644   1.8188180  75.8949661
  29.9156928   1.1622843  74.5911837  71.0050631  22.5799870  16.8723750
  70.6631374  23.4404373  17.1151590  70.9636450  22.0690060  17.6807165
   4.3568563  77.2633219  87.3186398   3.5154387  77.3514557  86.8708897
   4.3407536  77.9411030  87.9943562  84.3020248  80.7980442  79.3093348
  84.5407200  80.5996799  78.4038448  83.8388824  81.6341209  79.2572784
  20.9726334  55.0237226  57.4317789  21.2438011  55.2999687  56.5563440
  20.1853085  55.5374432  57.6118898  77.8973579   2.0617267   0.4692359
  77.1149302   2.3142630   0.9594048  78.0870295   2.8183526  -0.0855383
   0.9191500  41.4980984  60.3868055   1.1799001  40.7448673  60.9167957
   1.5578660  42.1769094  60.6047249  16.7170608 105.2432632  27.1962380
  16.8040562 105.6184769  26.3199520  16.3951266 105.9657764  27.7352762
  60.8174372  50.3193521  25.0266218  61.6983223  50.4612780  25.3732204
  60.6937551  51.0241795  24.3908906 112.2673893   9.9587798  22.0433307
 111.8724060   9.1013622  22.2016215 112.7635574  10.1447618  22.8404880
  81.4165115  23.3012342  21.1988950  81.1439800  22.4094391  21.4149189
  82.2952843  23.2011056  20.8328962  72.0113611  59.4498825  13.9116228
  71.5279484  58.8466120  13.3471632  71.5156603  59.4610262  14.7303963
  88.9831257   4.2763367  15.0363576  88.7019062   5.1888669  15.1029432
  88.2180977   3.7694758  15.3084803 110.5679607  12.6076734  22.2021532
 111.0119343  11.7705107  22.0669723 110.5494404  12.7182055  23.1527710
  43.2525206  69.9094534  48.6434174  42.8565168  70.1643944  47.8100967
  43.0584812  70.6377029  49.2335320  62.4214935  94.7466278  61.4063978
  63.2427025  94.3189716  61.1635780  62.6911402  95.5138111  61.9113350
  88.0486393  14.7736335   6.7443901  87.5831509  15.5781710   6.9730103
  88.1840611  14.8357105   5.7988524  96.6261864  27.9654193   2.7339619
  96.3399601  28.5777044   2.0561634  97.3288631  28.4265566   3.1920317
  76.6537762  12.9590356  45.6588030  76.3210535  12.0679331  45.5517244
  77.5241852  12.8454471  46.0405302  60.4733992  18.9977813  49.2962837
  59.9734545  18.2826149  48.9028025  59.8437309  19.7142053  49.3768358
  91.8864059  38.6221385  15.4651165  91.6201687  39.1469383  14.7101784
  91.9344807  39.2485404  16.1872947 107.2347641  75.7443380  62.8683758
 107.6698875  76.3638306  62.2826052 106.6517544  75.2439356  62.2974777
  17.5908744  13.5542572   5.7649422  17.3874748  13.5802615   6.6999203
  18.4912097  13.2317698   5.7245708  29.5018816  31.8436718   2.0695250
  30.2398896  31.3465500   2.4222976  29.5891404  31.7605329   1.1199428
  41.8224669  55.9321737  58.9827585  41.3469934  55.1111412  58.8560152
  41.7820120  56.3663721  58.1306601  16.9511819  71.6861868  76.0067606
  17.8408337  71.5581512  75.6775808  17.0552206  72.2721004  76.7565012
  68.6582947  40.8268404   3.3221593  68.8439417  39.9216676   3.0723083
  68.1738615  40.7537794   4.1444856 109.2166138  26.6707492  28.8512659
 109.5307636  27.3370647  28.2400656 109.5861435  25.8511329  28.5227680
  71.5941477  83.4070110  81.9966221  72.2731447  84.0256596  82.2658157
  70.9805536  83.3902836  82.7310944  95.0890636  60.9976721  15.7412231
  94.6557903  61.8511963  15.7425034  94.9385738  60.6513596  16.6207981
  74.1022635  13.7349474  31.4674735  74.0248156  13.9870298  32.3876286
  73.4301662  14.2496741  31.0207367  22.3718023  96.7993546  26.5616417
  21.8893075  96.8942547  27.3828769  22.6477623  97.6891613  26.3417912
  87.9300594  14.5678699  10.8515048  87.1353912  15.0494659  11.0812902
  88.3854771  14.4458354  11.6845310  44.9407434  58.3800602  88.5268688
  44.5387316  57.6637268  89.0182781  45.8562899  58.1187105  88.4283447
  71.4073277  71.6925526   1.0202222  71.9121695  70.9041166   1.2195646
  70.5744696  71.3643551   0.6813020  94.8899937  45.6678867  23.0138946
  95.0160122  44.7853756  22.6652884  94.8000717  45.5417013  23.9584708
  36.1093140  45.0163364  91.4437771  35.7115388  45.7942009  91.8348503
  36.9672227  44.9495411  91.8630219  99.3059254  21.2764382   0.7060543
 100.1437378  21.0339046   0.3117499  99.5396042  21.8735981   1.4167048
  17.1933818  76.4766216  14.5425904  17.7516890  76.4982224  13.7653792
  17.5839877  77.1181345  15.1359892  13.8054442  64.9973917  70.1461506
  13.4565496  64.8983002  69.2603254  14.7548366  65.0267935  70.0277424
  21.3572788  97.4029827  70.7389021  21.7269802  98.1654930  71.1840296
  21.9574142  96.6878986  70.9503603  32.7237105  52.9099369  65.6701565
  32.6696897  53.0964994  66.6074467  32.6469660  53.7668467  65.2505732
  67.6645081   0.7567312  92.1543105  67.3188202   0.6316807  91.2705144
  68.1956761   1.5507080  92.0936102 102.7640915  70.0856972  66.7455673
 103.0547619  70.0507069  67.6568937 101.8472290  70.3558302  66.7968082
  24.6839571  85.1693153  79.4755268  24.1464901  84.9062729  80.2226353
  25.5363846  84.7661114  79.6399355  62.4417162  49.1486168   6.0556555
  61.9169283  49.9451065   5.9754318  63.2331419  49.3312168   5.5491614
  99.6174717  50.0457096  22.5159383 100.3356266  50.6226206  22.2558165
  99.1420460  49.8736668  21.7031646  54.5710087 103.5193729  75.0957870
  54.2490816 103.4714794  75.9959555  53.7995195 103.7479782  74.5773506
 109.4733238  44.2377329  57.5879669 109.0132046  44.7769880  56.9447517
 109.3019485  44.6664762  58.4264421  25.5549145  94.3953705  61.4561319
  26.0205245  95.0436115  61.9845390  24.6299338  94.6145058  61.5684795
  81.9629574  46.7764521  34.9989533  82.7760696  46.4050007  34.6567488
  81.4591789  47.0093250  34.2190814  99.3477917  99.4671249  51.8679905
  98.7003517 100.0972843  51.5518379  98.9525414  99.0920448  52.6549625
  50.8420086  97.3132706  24.6560407  51.1843920  96.4900303  24.3077970
  51.6055679  97.8883934  24.7055221  15.5730617  89.7692776  59.0949011
  16.1874533  89.2440510  58.5821724  16.0847545  90.5265141  59.3794918
  23.8734603  54.4827223  83.6642647  23.5379314  53.6444330  83.9819431
  23.4250641  55.1381826  84.1986275  34.7037935  89.4485760  82.9100418
  34.8317671  89.7953987  83.7929726  35.5434322  89.5905495  82.4729156
  67.0850420  16.1220074  10.8095276  67.8010798  15.5125165  10.6305099
  67.1827030  16.8071222  10.1482320  77.6885796  31.1572552   5.7671833
  78.5076904  31.4735532   5.3860772  77.8724766  30.2501154   6.0111290
  96.2490845  17.2263813   8.6723262  96.0787106  18.0870771   9.0549546
  97.2023487  17.1412742   8.6890614   1.3977098  15.7781744  49.6200418
   2.2300722  15.9427106  49.1769457   1.6393837  15.6195951  50.5325556
 104.9580574  30.3368378  13.1595588 104.0059471  30.4201627  13.1068170
 105.1027298  29.4539547  13.4998786  98.5801888  76.2956429  71.2849855
  98.7407780  76.5636206  70.3802013  98.5211658  75.3410959  71.2451792
  88.0245399  30.9393740  13.5365653  88.2934475  30.6968570  14.4226277
  88.8439655  30.9987688  13.0453968  88.0049992  18.5067904  16.0522127
  87.3861408  17.7910972  15.9071863  87.6765728  19.2216158  15.5068719
  38.4845114  79.3289471  10.3272724  39.3952918  79.0364790  10.2930319
  38.4577680  79.9437094  11.0604739 108.1059361  19.0360391   6.6503459
 108.1694508  18.0861437   6.5508574 107.4087811  19.1633880   7.2937632
  20.9234571  83.5401917  79.1986179  20.6752849  83.2103252  80.0622368
  20.9640527  82.7592850  78.6465454  79.1708899  40.6142330   3.4504974
  79.4285154  41.0171938   2.6213509  78.3552027  41.0552740   3.6879027
  98.7322235  24.4286513  22.3944020  98.5902977  25.1510477  21.7826581
  97.8514481  24.1560197  22.6515698  67.4548435  32.3787355  18.6880505
  68.1478405  32.4765229  18.0350363  67.9166794  32.3585820  19.5262241
 100.8751869  63.9473152  28.7715840 100.6657410  63.1496763  29.2575240
 101.4521790  64.4391870  29.3558550 106.0226917  39.1641808  13.2608640
 106.1358643  39.1968083  14.2107904 105.5778122  38.3318377  13.1011105
 104.3060684  25.5837679  26.3675117 105.1374245  25.1509905  26.1731219
 103.9687824  25.1210594  27.1345663  97.7220821  37.7802968   1.2385205
  98.4076595  38.4031153   0.9970322  98.1954765  37.0322895   1.6026752
  97.6128674  25.3926301   2.8891203  98.2645130  25.2767181   3.5806051
  97.3682213  26.3164687   2.9429811  18.8378572  93.0567265  60.8001566
  18.2571852  93.5896015  61.3433886  18.3204138  92.8582382  60.0197172
   3.0304903  87.1275043  68.7981415   2.5913009  87.2631931  67.9585361
   2.9576904  86.1864281  68.9571905  58.9893007  87.1040821  88.7573147
  58.3984613  86.6401768  89.3505478  58.5937309  86.9960403  87.8923988
 102.8322887  50.4056025   9.7685480 102.7905464  49.5422411   9.3573314
 102.2291088  50.9442377   9.2564076  18.5788143  93.6723232  82.1168423
  18.2221866  93.1287479  81.4142990  18.8422596  94.4833183  81.6819668
  77.3680544  14.6948469   2.4610850  76.8095541  14.8297322   3.2266653
  76.9964361  15.2670276   1.7897129  62.9904985  38.6156464   2.4397025
  63.7782764  38.5609007   1.8987414  62.5230074  37.7987623   2.2653881
  21.5980911  74.7233868  71.8633986  21.5963435  73.7716627  71.7611742
  21.7134237  75.0595284  70.9746122  29.1065073  35.5037618  68.6530828
  29.9097943  35.4681253  69.1724014  28.4084964  35.3069615  69.2778063
  28.7602353 105.1492310  72.2612906  27.9793262 104.8607826  71.7888451
  28.4455919 105.8392525  72.8453350 101.2092495  61.8058109  11.4535260
 101.5772724  62.1193933  12.2796345 101.5206146  60.9036827  11.3797355
  28.0622196   3.1081036  83.3189964  27.8663969   3.2787406  84.2402840
  27.2040701   3.0318287  82.9018688  11.6380682  65.1305352   0.2947792
  12.5123109  64.9724398   0.6510719  11.6109838  66.0741697   0.1365074
 110.9393883  50.4078341   0.3910393 110.2283478  49.7722578   0.3091985
 110.9839153  50.5980730   1.3280872 100.7646751  21.7897296  22.5642037
  99.8540401  21.5224934  22.4394989 100.9867096  21.4810896  23.4426546
  96.1921024  74.5013618   6.5619987  96.9806576  74.8635912   6.9659805
  95.8994293  75.1817703   5.9556806  77.8437328  34.5361233   8.0974084
  76.9042587  34.3575191   8.0559409  77.9257298  35.2387285   8.7422776
  95.8348846  14.5866942   7.8682989  95.5774784  14.7428119   6.9596726
  95.8922005  15.4606318   8.2545352  24.6336865  86.0657406  88.1678867
  24.4383979  85.5917168  87.3595619  23.9822912  86.7664719  88.1979561
  35.6304765  35.1783156   5.3664744  35.4832244  36.1186028   5.4684997
  35.9479237  34.8913074   6.2226784  48.7171364   3.5377616  88.7556362
  48.7018204   2.8101236  88.1339073  47.7956581   3.6989158  88.9584732
  29.0367699  52.5254917  12.7057648  28.7702012  52.9067707  13.5423040
  29.8804593  52.1121407  12.8889537  18.2674217  86.6064548  56.4774179
  17.9834402  86.7541504  55.5753279  18.2892859  85.6538677  56.5687084
  99.2573547  32.9218769  24.2983651  99.1163063  33.5040689  25.0449514
  98.8837814  33.3928299  23.5534596  74.2685175   5.0276238  81.7443180
  74.2972755   5.7733762  82.3437023  73.4754848   4.5520365  81.9915962
 107.4760723  85.7898998  88.3827400 106.7199612  85.5532169  87.8456020
 107.1334267  86.4242458  89.0123749   9.4471967 103.6886597  82.1336365
  10.3099728 104.1024494  82.1586514   8.9101189 104.2859077  81.6129971
  63.2985210  39.8261023  16.0357809  63.5223293  39.7822833  16.9654167
  62.4525976  39.3827438  15.9719217  59.0694380   1.7821223  84.0610695
  58.4068155   1.4040145  84.6391678  58.5664606   2.2220100  83.3756924
  99.7822857  96.4495182  83.4066772  99.8074245  96.7892265  84.3012142
  99.1205788  95.7583237  83.4314728  85.5840206   1.4352000   6.7322320
  86.4707184   1.6382572   7.0301646  85.1229572   2.2734523   6.7636180
  94.4706059   1.3689266  71.3850975  95.4097366   1.2006451  71.4621878
  94.1287899   0.6084036  70.9149885  83.0015755  17.7412486  35.3370547
  83.8698387  18.1150603  35.1867032  83.1208897  16.7999625  35.2106571
 100.3954887  42.1125746   2.6330295 101.1906052  42.5190163   2.9777360
  99.8291302  42.8498077   2.4050668  23.6514139  93.0121040  76.4755058
  23.7054992  92.8897476  77.4233103  24.3820667  92.5019360  76.1260653
  83.1480312  34.7001553  73.3925533  82.9231262  34.8552728  72.4751711
  82.7535629  33.8520193  73.5957623 104.6930750  58.4854994   0.0823006
 104.7671278  59.4271616  -0.0726810 105.5937679  58.1947438   0.2253136
   1.6192728  36.5996695   9.6807110   1.0918672  37.3696613   9.4681376
   1.8824458  36.7335534  10.5912316  28.9302850  97.8253555  89.9981689
  29.8491192  97.9964447  89.7915173  28.6082268  97.3163891  89.2542171
 108.8993645  44.7609091  11.3985538 108.3356380  44.1126966  11.8207729
 108.3259106  45.2076864  10.7758415  95.4490566  31.9754267  21.4336872
  95.0989532  31.2838173  21.9952416  95.3365326  32.7777576  21.9434285
 108.1115825   0.6435842   4.2443597 107.7038152   0.7530660   3.3853084
 107.9354818  -0.2676230   4.4787002  97.2671127  41.7282009  15.0135827
  96.6606426  42.4674892  15.0568676  96.8469524  41.1083269  14.4173837
  19.0684092  96.1040974  70.1612473  19.9366093  96.5067959  70.1784182
  18.9039528  95.8506203  71.0695076  28.8908172  11.6521311  70.1983976
  28.5486579  12.1690583  69.4690514  28.1133842  11.3888311  70.6908417
   4.7309977  50.6626940  90.7045364   4.0433073  51.2993288  90.8994865
   4.4678530  50.2737522  89.8704338  28.3585835  97.6638317  85.0943565
  29.1676736  97.4919510  84.6126270  27.9960537  96.7957592  85.2711201
  70.3561926  61.1541080  41.6382551  70.7247734  61.8351841  42.2008514
  70.2877474  61.5660238  40.7769346  15.7331884  92.0349789  74.7167921
  16.3082719  91.7891407  75.4414129  16.1217630  91.6148663  73.9494896
  10.4618725  95.8762105  91.3103318  11.1833176  95.4639704  90.8351270
  10.2152810  95.2337916  91.9757014 100.2528095  28.6328006   9.9793077
  99.7921753  27.8491426   9.6794277 100.6043339  29.0246439   9.1798604
  80.2242661  45.8807564   7.8934103  80.3613186  45.3119564   8.6509854
  80.9052753  46.5491009   7.9693931 108.4086418   0.6915348  79.7971869
 108.5057640   1.3337678  80.5002785 109.2452431   0.2267232  79.7801352
   5.6496906  72.6806116  72.0624495   6.4563519  72.2321558  72.3162556
   5.9466922  73.4654474  71.6019535 108.3473969  59.7533751   2.8752515
 108.3685970  60.5918884   3.3364156 109.1841507  59.7135210   2.4121147
  89.0595627  61.6147184   0.6597445  88.7498379  60.7100773   0.7036599
  89.0352154  61.8312359  -0.2723277  23.2288313  86.0349178  75.2323151
  22.6380444  86.7861748  75.2854061  23.1020546  85.5715466  76.0602236
  21.8795562  70.0622606  88.3616066  21.4823341  70.6031609  87.6790619
  22.4041295  70.6745911  88.8774681   9.0559888 105.4001045  71.6619539
   9.0030468 106.3304710  71.8807125   9.9885702 105.2409935  71.5163279
  27.8245711   2.4319249  61.0057926  27.6853609   1.8299828  60.2746868
  28.7605858   2.3664501  61.1950541 106.2848473  64.7790384  75.7815838
 106.2794876  64.9836111  76.7166519 107.1927834  64.5411968  75.5936384
  92.2992134  37.9099894   0.1287912  91.6705990  38.0266428   0.8411587
  92.2391033  36.9810104  -0.0939597  38.6446834  51.4126778  90.3991985
  38.8009238  51.9910383  89.6526623  38.5910869  50.5369043  90.0165939
  99.6013737   2.8742009  77.5627470  99.5573139   2.1157524  76.9804716
 100.3863907   3.3453164  77.2834253  98.0412769  26.3680816  30.4580569
  98.2346344  27.2425342  30.1201510  98.3804798  25.7726550  29.7897458
  23.3427548  55.3167915  72.5084591  22.8768778  55.8789730  73.1274462
  22.9964185  54.4399023  72.6738262 104.7855377  13.5643113  21.8030429
 104.0640068  14.1393209  21.5480995 105.0209713  13.8521016  22.6850724
   3.0136558  26.4612699  39.3311715   2.5685027  27.2230434  38.9599919
   2.6612610  25.7167816  38.8435388  13.4531579  92.1557744  91.5176024
  13.9535508  92.5036676  90.7794942  14.0236268  92.2841079  92.2754445
  33.8197017  55.0788403  82.2315598  34.4812560  55.6470966  82.6261139
  33.6980200  55.4296255  81.3493061  55.4093122  17.1676230  80.4971123
  54.9922371  17.7669489  79.8781681  54.9532461  17.3220658  81.3243866
  10.8699465  33.1684637  22.7856207  11.3169146  33.7440157  23.4062600
  10.7647479  32.3425579  23.2578945   1.8914101  64.4613123  27.8534770
   1.1218881  63.9161491  27.6895738   2.5292647  63.8640308  28.2441545
  60.5437088  35.9253359   7.8718746  59.9896431  36.1518741   7.1249324
  60.3934908  34.9896240   8.0064470  45.4486990  69.0631247  37.9154897
  46.0596466  68.3786535  37.6425886  45.3390932  68.9251232  38.8563251
  84.7344685  53.5386515  22.6173782  84.0365314  52.9078245  22.4408126
  84.6219063  53.7684536  23.5397410  92.2183514  12.0155907  37.8569865
  92.0755672  11.1903310  37.3935318  91.3508606  12.4175274  37.9032159
  49.6647120   4.3206325  80.7024574  49.3292809   3.5502186  80.2439976
  48.8985777   4.8825243  80.8188343   5.2599061  98.2979202  90.6022644
   6.1130446  98.0168056  90.2715683   5.4634410  98.9863586  91.2353897
  63.6231661  33.7641692  17.3362422  63.0423403  34.5233917  17.3857355
  64.4215059  34.0437460  17.7842641  45.5739498  97.8236198  76.0396385
  46.3753748  97.7268410  76.5540171  45.6300402  97.1351337  75.3770113
  85.7052422  10.1696694  82.5035572  85.0786686  10.8431709  82.7681923
  85.2535820   9.3427724  82.6723194  45.2209234  90.2017117  81.7419624
  45.7485008  90.6371593  81.0724354  45.7519531  90.2537251  82.5366592
  51.6497707   8.7530655  75.6895351  52.1787596   8.0393094  75.3332281
  52.2630787   9.2661685  76.2156630  21.3008118  88.2548428  76.3939810
  21.0264540  87.8042603  75.5952740  20.4854941  88.4219646  76.8667984
  73.0177069  71.5665150  30.5364776  73.3818722  72.0852041  29.8191381
  72.4385262  70.9370422  30.1068902 104.3414116  40.1223183  30.0733519
 104.3109894  40.3972864  29.1569996 103.4481144  40.2516174  30.3919935
  75.8793926  24.3426847  16.1568141  75.2543020  23.7638330  15.7204342
  75.9607792  23.9844990  17.0407319 105.7518196  52.7055025   7.9948175
 105.2716064  51.9687366   7.6169378 105.4547119  52.7440548   8.9039224
  62.3962259  21.5132499  15.4330659  62.9114580  20.7282829  15.2470708
  62.2465324  21.9103551  14.5750844 109.6685410  76.2209845  65.9743690
 110.6150627  76.1466360  66.0960531 109.2972946  75.9550476  66.8156052
  98.0008507  24.1552162  32.9256153  98.2555199  25.0775242  32.8986645
  98.4366226  23.8090777  33.7044120  11.8538690  88.4182835  86.5160370
  12.0111120  88.1874847  87.4315929  11.0246980  87.9914188  86.3004303
  65.0358438   3.6328426  91.2519073  64.6639252   3.7410533  90.3765869
  65.7687569   4.2479590  91.2784576   8.2380402 102.6470661  87.1010590
   8.7616575 102.9126930  86.3450813   8.8123757 102.0637608  87.5971699
  22.8131747   8.6099815  33.8030005  21.9849992   8.6701930  33.3268356
  23.4321904   8.2580191  33.1633329   9.2869616  38.1654429   6.9720381
  10.0083816  37.7308464   6.5171635   9.3850636  37.8990316   7.8861678
   8.0657446  50.8873892   5.1165694   7.8462040  50.8212900   4.1872337
   7.2196454  50.9627724   5.5577779   9.1125751  16.7395329   4.6697450
   8.5656369  16.5584898   5.4341495   8.5947150  16.4309716   3.9262110
  96.2307930  20.0105572  64.1679335  96.6012669  19.4224596  64.8260498
  95.3023815  20.0681782  64.3936968  78.7926912  80.3259850  24.6736312
  78.4200382  81.0017967  24.1073728  78.5957241  79.5031166  24.2260623
  22.3727918  86.1918259  89.9474430  22.7736187  86.9442368  90.3826904
  22.0356727  86.5433788  89.1234303   6.0705620  26.8329096  31.8360925
   5.8309209  27.7177215  32.1116185   5.7215047  26.7557669  30.9481502
  83.7532139  44.3877459   7.6793015  83.6060333  43.6745119   7.0581222
  84.5119095  44.1069937   8.1909609  81.7056465  20.7929134   5.3971928
  82.1686363  21.6115093   5.5754334  81.4230251  20.8710909   4.4860139
  12.4347246  93.2936764  77.7424097  12.7186418  92.9687214  76.8879986
  13.2387304  93.6014366  78.1608534  30.3147912  20.4872537  31.4361739
  30.3171372  21.4322662  31.5884209  29.7686195  20.1329589  32.1378899
  55.9246492   8.2915372  67.8564119  55.8766127   9.1513556  67.4385166
  55.4251719   7.7156419  67.2775316  54.5753479  94.3146324  79.2197800
  55.3761339  94.8047161  79.4062996  54.8562241  93.4001350  79.1876221
  91.4046192  15.4504478  87.3874760  92.1722126  16.0002017  87.5449944
  91.7654228  14.5856714  87.1919918  35.8540964 101.7699242  84.4770050
  35.3680396 102.5597668  84.2401123  36.6127396 101.7714500  83.8933277
  57.5415850  93.1577778  83.4450150  57.2433901  94.0603733  83.5574150
  57.4406815  92.9870605  82.5085831  91.7236519  46.4453983   5.0577992
  90.8233166  46.4718103   4.7338781  92.0705318  45.6142378   4.7336394
 102.4874783  12.1046746  87.5211525 102.6866913  13.0377233  87.5983906
 102.4154472  11.9523358  86.5789032  88.6855412  65.0626326  25.0755477
  88.8310623  64.7472763  25.9675169  88.3687973  64.2953491  24.5989156
   3.9654961  57.8173256  36.6834283   3.2314715  57.2137642  36.5687323
   3.5609269  58.6331415  36.9783878  12.6218069  97.6037979  88.1540775
  13.5258973  97.3777390  87.9355526  12.1384168  97.4733067  87.3382664
  61.2348223  34.9555159  39.3716502  60.4771042  35.3639245  38.9529610
  61.2689304  34.0747643  38.9983582  65.2076483   5.8195287  72.0658302
  65.9398413   5.7576597  72.6792622  64.4583988   5.4747742  72.5516272
  39.6702409  45.6349134  15.7097924  39.9690509  46.2363577  15.0277305
  38.8770819  45.2386856  15.3490496  97.0635319  66.9772482  69.9517059
  97.8700447  66.8333673  70.4467392  96.9911861  66.2103224  69.3835306
  81.1566639   1.5092117  89.2431831  81.4432049   0.6546226  88.9209938
  81.1244678   2.0612505  88.4618759  98.4317684  59.6469307   0.4279378
  98.8343906  60.5067205   0.5499635  99.1659069  59.0331554   0.4514993
  98.6592674  29.3086982  23.4383893  99.0223026  30.1548362  23.7000966
  98.8718700  28.7220311  24.1642356 107.7243900  92.9114914   2.6807803
 108.1278038  93.1888485   1.8582439 108.4635639  92.6933384   3.2484654
 102.4429226  57.9554176  13.0390680 101.6528320  57.6906586  13.5101128
 103.1637859  57.6445293  13.5867333  11.1436510  94.7203827   3.7738213
  10.2568078  94.5886230   3.4385920  11.7019773  94.2231560   3.1761011
 103.2769203   1.8616359  61.3796329 103.1153107   1.4206390  62.2136784
 104.2036247   1.7026554  61.2002611 101.4607430  37.5527763   1.3902393
 102.3613071  37.8733754   1.4396739 101.5086269  36.6532564   1.7139687
 104.1552067  51.6928482   3.6016932 104.6903324  52.4862194   3.5808966
 103.3109760  51.9638538   3.2410613 102.6816750  44.7341585  19.4541907
 101.8999672  45.1603174  19.8056972 103.4119797  45.2245426  19.8315537
  64.3479967   1.3183089  80.8260822  63.4041405   1.4741045  80.7929420
  64.7310495   2.1894033  80.9295082  84.4710827  83.6748886  32.6226997
  83.7090492  83.2296085  32.2522211  84.6936703  83.1622601  33.3998132
  41.2553930  39.8819089  15.6512678  41.9867277  39.2779636  15.5223119
  41.2799072  40.0918627  16.5848362  30.8356929  65.5794048  12.7382100
  29.9830675  65.9283924  12.9979622  31.0815167  66.0948324  11.9700062
  55.9211063  71.3552809   9.9741936  56.3350964  71.7812300   9.2235863
  56.0686493  71.9579935  10.7030272  71.1238241  42.5974941  82.2152233
  70.7312536  41.8112421  81.8358517  72.0615196  42.4073267  82.2433472
  25.4123807 104.3527985  84.6258926  24.5903087 104.7980118  84.8313522
  25.1591730 103.4433746  84.4676018  97.7777386  63.5689116  29.3899608
  98.5828304  63.3036995  29.8346257  97.2459698  62.7734852  29.3627596
  83.3050060  16.0831892  52.3007631  83.4661388  16.6826308  53.0294180
  83.8231277  16.4390051  51.5788364  51.8072796  89.7862339  89.6021938
  52.7604294  89.7662640  89.5165539  51.5959835  90.7134247  89.7113419
  22.7846003  88.4446335  27.6681376  23.5949540  88.0484390  27.9884195
  22.1072650  88.1156254  28.2590699  60.0919390   2.5167000  71.8881512
  59.8031759   2.1631113  71.0468292  60.9996176   2.2245680  71.9718885
  60.9901476  29.0056181  89.9417210  61.1172533  29.8801994  89.5740509
  60.8348751  29.1579270  90.8738804 108.7377548  79.0224648  16.4893281
 108.0086994  79.5260286  16.1271966 108.8705349  79.3883181  17.3638284
  97.5117207  62.9851198   7.3420632  96.9801044  62.4715662   7.9502451
  96.9128513  63.2071400   6.6291112   2.1601577  87.7437496  82.0389080
   2.4764256  86.9803333  81.5557957   1.7751996  88.3086109  81.3688564
  75.8550262  61.7877626  25.0196362  75.8495188  61.1459684  25.7297802
  76.3578892  62.5246143  25.3666306   0.4304069  24.1793799  29.5826745
  -0.3498895  24.0247154  30.1150727   0.6903119  23.3092165  29.2801881
  47.6718712  21.1419439  81.0593510  46.9774532  21.4462519  81.6436577
  48.4746218  21.5084696  81.4301300 110.1757431  23.3623481  36.9832993
 110.1977730  22.7821279  36.2223196 110.4416275  22.8066802  37.7159452
 100.2072144  24.0492797  30.5438757 100.0603867  24.8990417  30.1284528
  99.7636127  23.4231234  29.9717069   7.1155620  33.5377765  78.3803082
   6.8740535  32.6262236  78.2160616   6.8231034  34.0074992  77.5992441
  81.7609215  26.5722466  70.8113623  81.4650536  27.0386791  71.5931129
  81.5585995  27.1652317  70.0877142 111.5345860  33.5360789   6.8321514
 110.8082104  34.0263939   7.2171259 111.5650654  32.7207017   7.3326141
 102.4594879  20.5550218   7.5506914 102.1840572  21.2446928   6.9467646
 102.7522278  19.8422396   6.9828212  70.7129955  13.2570195  84.8131180
  70.0790548  13.0385673  85.4962254  71.0075617  12.4094498  84.4798279
  56.6531706 101.9885159  74.5788622  55.9091091 102.5906849  74.5778942
  56.5550089 101.4852047  73.7706089  99.8682976  34.9995232  20.8213329
 100.6088543  35.4242206  21.2542820 100.0382519  34.0627193  20.9200525
 100.6505966  29.7246981  50.1684713 100.0469303  30.3058195  50.6312037
 100.0830841  29.0978169  49.7199345  61.6550207   7.5493854  84.0322685
  61.4732409   6.6985267  83.6332321  62.2251368   7.3489106  84.7745705
  12.9172003  48.5806751  23.0379963  12.4934173  49.4343281  22.9490590
  13.5588443  48.7035275  23.7375903  27.1206760  72.3912191  29.5815992
  27.6411247  71.8153381  30.1417065  26.7553639  71.8102121  28.9143586
  39.5270967   2.8271207  80.6663513  38.7771082   3.2481840  80.2462864
  40.2174997   2.8513774  80.0037861  12.6035237  61.4700603  37.0126843
  11.9984496  61.7571449  36.3287997  13.4552050  61.8085575  36.7364812
  45.5626004 104.6803726  91.4354610  44.9633877 104.7732867  90.6948280
  46.4170925 104.5227809  91.0339069  42.6079559  63.1224775  87.3359299
  43.1669044  63.3240938  86.5854931  42.2636366  62.2488594  87.1502686
 111.9893837  66.2346840   9.8264360 111.2404633  66.8060780   9.6565568
 112.2783566  66.4740133  10.7070315  83.5302353  15.1494670  27.0724654
  83.5175419  15.7676721  26.3417840  83.1344128  15.6299174  27.7995968
 101.0762596  59.7159815  24.9764156 101.3225460  60.2503443  25.7314205
 100.3336811  59.1957092  25.2832198  64.3848317  30.8343746  91.7760119
  63.6450569  31.3853599  91.5203211  65.1284592  31.4356949  91.8168911
  37.6876783  64.3298149  16.1980319  37.4520516  64.6817207  15.3396177
  38.4288836  63.7497234  16.0238457  55.7009315  82.5782204  53.5442400
  56.2620449  82.9296017  54.2355537  56.3097095  82.2992516  52.8602791
  91.8317032  66.5056324  14.6384227  91.9480228  65.6528378  14.2195582
  92.6366043  66.6382885  15.1391959  76.6029501  19.8305678  43.7102175
  77.5495815  19.8715353  43.5743856  76.4880180  19.9940205  44.6463299
  81.7543125  53.9263725  39.9792767  82.2625256  54.0401030  40.7824039
  82.1945000  53.2136154  39.5161963 101.1558723  37.6250958  74.1828537
 100.3535461  37.2229791  74.5157242 101.5903664  37.9729509  74.9616003
  10.9587228  30.5644536  85.8143902  10.7936418  31.2768102  86.4320660
  10.0886118  30.2997923  85.5158997 108.1497955  27.7479243  44.8116589
 107.4483299  27.4721336  45.4016781 108.1708050  27.0734286  44.1328049
  51.3520527  88.0681419  21.6888666  51.2384224  88.5025597  20.8435249
  52.2602463  88.2491970  21.9310284  13.0744982  25.9045362  65.1135206
  13.7823474  26.5337515  65.2523327  12.8903341  25.9542918  64.1755199
  96.0051346   2.9320046  74.4283247  96.3789558   2.0651571  74.2700291
  95.0620079   2.7791330  74.4865036  21.8343949  83.0162811   0.2356091
  21.0741138  83.4921074  -0.0987450  21.4796233  82.1804333   0.5384859
 106.6957378  16.6834617  91.4800835 107.4811363  16.5907848  90.9408379
 106.1610794  17.3275411  91.0158157  31.2171936  80.8667946   7.9867882
  31.5031505  79.9565601   8.0638188  30.3512430  80.8124065   7.5825584
   1.0043363  24.6856380  72.0500326   1.4967801  25.0360465  71.3077736
   1.2971890  25.2054095  72.7985668  86.9218922  60.1578522  79.3972397
  86.5623760  60.7214737  78.7121868  87.8442860  60.4074574  79.4531822
 107.3504162  51.0716534  80.9643650 108.2006550  50.6705666  81.1445427
 106.7791176  50.7442808  81.6591167  44.0579598  16.6889669  90.7484649
  44.4657795  16.0045912  91.2790659  44.2727558  16.4524080  89.8461719
  77.6743031  29.8771501  84.1029549  77.9823256  30.2048421  83.2579899
  77.3177147  30.6485438  84.5434475  60.6920004  88.9990711   3.5460296
  61.1395788  89.5451736   2.8997496  59.7626877  89.1893864   3.4179896
 104.5740795  12.2291553  46.2278080 104.8922539  12.6305604  45.4191875
 103.8727093  11.6427290  45.9442472  19.2672491  35.2962852  71.0474491
  19.2549980  35.2901316  70.0903463  19.1740263  36.2195468  71.2822437
   9.0050423  32.6448369  62.2347689   9.2004269  32.1277285  61.4533234
   8.4798372  33.3771920  61.9122076  14.0813184  56.4944983  70.2750111
  13.9769578  57.4452686  70.2379274  14.5639825  56.3380051  71.0866642
  12.5162506  46.8198967  44.1320992  11.9470513  46.0877848  43.8949060
  11.9362950  47.4413872  44.5721388  98.7554359  40.6283426  73.2949257
  98.1637859  41.1850262  73.8011694  98.2034779  39.9091101  72.9878759
  13.8691223  23.3439779  66.1524534  13.4255373  24.1792560  66.0048962
  13.5732162  22.7853799  65.4336786  51.1924505  70.2573633   3.8756502
  50.5312872  70.6622267   4.4370621  50.7946920  70.2487707   3.0050492
  21.4397454  54.7514820  65.1355839  20.5879474  54.9301672  64.7371578
  21.8947387  54.2062664  64.4937515  21.8820858 100.8275700  24.2306519
  20.9413385 100.6597042  24.1754961  22.1835113 100.2687454  24.9469495
  76.3729143   5.4294693  71.1269569  75.4299879   5.2666909  71.1519289
  76.6209841   5.5416882  72.0446157  28.6578298  14.6655440  81.5421867
  29.5237947  14.9123180  81.8669033  28.8233471  13.9273655  80.9557343
  21.5631199   3.2631019  76.1690807  21.8147945   2.6204985  76.8323708
  21.4141512   4.0701115  76.6618013  84.3415356  30.9604120  81.9985390
  83.6284161  31.2885332  81.4507961  84.3585110  30.0182152  81.8305779
  65.1461697  84.6952534  16.8032765  64.6403456  84.6169186  17.6121247
  65.9461737  84.1974735  16.9719195  19.4374537 101.9369221  16.0710585
  18.4857249 101.8732262  16.1509728  19.6469748 102.8127098  16.3955975
  19.7412908  30.8354259  73.2787371  20.1921844  30.7870007  74.1216993
  19.5281136  31.7626977  73.1740618   8.0251259  37.3307800  66.6893911
   8.6545742  37.3731565  67.4092770   7.5325400  38.1490016  66.7534637
  26.6440535  85.2036095  11.6692722  26.1662698  86.0324955  11.6393626
  26.1616135  84.6717739  12.3022270  23.2282877   9.5948094  75.6720304
  23.6001325  10.4703999  75.5657053  22.2908950   9.7123694  75.5180645
  63.3644629  81.1371517  17.0837545  64.2499161  80.8534431  16.8563437
  63.1387520  81.7798424  16.4112639  23.4628487  53.1054258  81.2098789
  24.1942072  53.2551241  81.8089962  23.8132262  53.3210802  80.3456116
   5.2968061  29.5972824  70.8703566   4.4151145  29.3787265  70.5685568
   5.2719921  29.4424319  71.8146229  46.4835453  50.0486135  73.1985426
  47.2609758  50.4523039  73.5843801  45.8743763  49.9539757  73.9307880
 112.2030067  52.6123047  71.3587570 111.2581158  52.5535393  71.5000248
 112.4219704  53.5181284  71.5773058  60.1427174  95.2835941  18.8708246
  59.2454672  95.1763248  18.5551310  60.3713894  94.4294357  19.2373729
  99.1372395  44.9271727  47.8904676  99.8907852  45.1954889  47.3647213
  99.2869949  43.9984226  48.0671835  57.0310926  99.6404457   6.5910059
  57.3352718  99.1602898   7.3611766  56.2662029  99.1501236   6.2897378
  12.9097962  49.0471935  57.6050234  13.3158636  48.6470985  56.8360853
  12.2477257  48.4142017  57.8829050  76.5447140  35.2531052  79.4308758
  76.3176298  34.3241429  79.4720173  77.4547482  35.2643037  79.1343164
  92.8798199  38.0529380  88.1645679  93.5881710  37.6032448  88.6252689
  92.4999237  37.3825550  87.5966835  22.8890729  16.2234342  68.4902430
  22.4677062  16.8346953  67.8860569  23.7818933  16.1342835  68.1568384
  88.2923698  94.7837162  31.1002159  88.9259148  94.1305733  31.3972998
  88.7391090  95.6219387  31.2186956  66.3867664  76.5789509  11.4162982
  66.6187572  77.4707603  11.6753089  66.9084072  76.4143133  10.6307960
  56.6635609  99.6119118  14.6353757  56.1920452  99.0171242  15.2185869
  56.1197472  99.6573734  13.8489723 108.8539219  30.4789925  72.6211119
 108.0702019  30.9858346  72.4086952 108.7643051  29.6741843  72.1107340
  63.1120443  86.7436028   2.1900235  63.2466936  87.6572323   1.9382581
  63.8757706  86.5275574   2.7250710  39.6163893  57.0443630  81.7051220
  40.5677938  57.0841360  81.6077709  39.2974234  56.7903900  80.8390999
  32.2016644 101.0984707  14.6016049  32.0862532 102.0028591  14.8931313
  31.7752266 100.5724716  15.2781498  98.7785053  58.3462954  87.8860378
  98.5537720  58.8688850  87.1162128  98.1168079  58.5812998  88.5365486
   7.9626667  92.3843098  44.8762274   8.0747551  91.7063427  44.2098761
   7.1076238  92.1993065  45.2646923  96.7081451  63.2148743  79.6686172
  96.7488098  64.0502405  80.1341724  96.8312550  63.4473515  78.7482738
  56.6296625  82.5461578   6.5362191  56.5630960  83.4937668   6.4185959
  57.4126530  82.4259186   7.0735258  29.0741992  52.1363497  74.1135836
  29.2240906  52.5724173  74.9523973  29.6194196  51.3505125  74.1513681
  11.9207335  52.6070213  78.8845110  11.8205297  51.6566849  78.9397240
  11.3896620  52.9461193  79.6050739  43.0900526  55.7703209   4.0736374
  44.0129852  55.8410358   3.8298482  42.6245832  55.7242489   3.2385066
  19.3641412  80.5986214  31.6135001  20.2797723  80.8776379  31.6152930
  19.3370938  79.8696709  30.9937167  47.3879862  43.1960440  68.1941938
  46.5196133  43.0941010  68.5837650  47.3105478  43.9693832  67.6354551
  83.4408760  40.5589151  72.1226978  82.6716232  40.0239515  71.9269800
  83.9677048  40.0155258  72.7087021  84.2711926   4.9996546  79.5338821
  83.3549213   5.2756029  79.5109940  84.5271587   4.9424085  78.6133194
  13.6904573  20.3237629  70.9121132  12.9143190  20.6844521  70.4834557
  14.3718016  20.3562117  70.2405882   7.3482662  55.4390287  65.6594563
   7.1270722  56.2831211  66.0529184   6.8351692  54.8015165  66.1559868
  59.8185778  16.9170213  68.4120131  59.1169024  17.3483407  67.9243231
  59.7400570  17.2629797  69.3010473  26.5130663  26.9172883  71.6714668
  26.4932632  27.5626516  72.3781109  26.4012551  26.0753202  72.1128511
  33.5941052  51.9566917  62.9990339  33.5034108  52.3928595  63.8462400
  34.2584348  52.4675608  62.5365305  37.3468924  27.6852798  75.6266928
  36.7566419  28.4369516  75.5735683  37.0863771  27.2323895  76.4287233
  22.0184922  38.7089300  61.3634825  21.7239285  37.8254533  61.5846920
  22.5548124  38.9764786  62.1098137  68.9380693   0.0688097   4.5510620
  68.8897991   0.0988557   3.5955521  68.8924313   0.9856895   4.8221344
  24.3766499  47.3664474  82.9028034  25.0603127  47.8415251  83.3751774
  23.5724258  47.5638247  83.3829021  34.1125464  71.7487240  71.3519859
  33.6340547  72.0828772  70.5932903  33.5490751  71.0610151  71.7066431
  32.0691299  43.2926369  36.7936802  32.9063821  43.5783958  37.1591711
  32.3088121  42.7190304  36.0658336  14.5912492  77.5497913  85.0970173
  15.2260113  77.9243183  84.4862461  14.4058192  76.6789341  84.7456551
  84.0387535   1.9177538  12.2938037  84.5786572   1.3991183  11.6973507
  84.6166992   2.6210308  12.5898015  97.8734779  49.3526030  86.6179276
  98.8116169  49.1657782  86.5830326  97.5158024  48.9295149  85.8373451
  74.1276169  62.3082972  56.1685085  74.6839428  62.6406431  55.4640388
  74.7355127  61.8831539  56.7734432  30.8527637  51.1802626  55.2487087
  30.4468536  50.8757782  56.0603476  30.1287723  51.2358761  54.6250296
  14.4609809  35.5438280  79.7350693  14.4288480  34.5931649  79.8420334
  13.8694251  35.7227373  79.0041208 104.1307831  30.1457500  63.5339880
 103.1836987  30.0090313  63.5104370 104.5008659  29.2633581  63.5084200
  99.1043663  64.8971128  80.0796413  98.9170265  64.1887522  79.4637156
  98.3224392  65.4486847  80.0553322  95.7240391   1.0494827  17.4490428
  96.0575390   1.8085772  17.9273641  95.8925438   1.2531361  16.5290618
  20.2615380  98.5509491  40.7980156  20.4173851  98.3068085  41.7103434
  20.3131890  99.5067406  40.7936668  16.6110122  50.8306265  80.6099319
  16.6988647  49.9725866  81.0249996  16.1931646  51.3770294  81.2755680
   7.0084321  70.5721521  78.7167263   7.9650903  70.5999565  78.7329578
   6.7941892  70.1966858  77.8627014   8.1303388  54.6486473  90.6354523
   8.3899122  53.9178705  90.0743675   7.4046850  55.0630474  90.1686192
  14.3252611  99.9106979  87.5225258  13.6904132  99.2501736  87.7998638
  15.0129175  99.4117355  87.0816231  18.0348551  42.9118109  63.3457232
  18.5128939  43.6269426  62.9258442  18.1109774  43.0906391  64.2829847
  94.0058327  64.7104692  81.0000038  93.8818836  65.5560970  81.4310265
  94.0072250  64.9160671  80.0651455  10.4592633  88.8862324  63.5509205
   9.8635578  89.6192074  63.7062025  11.2204802  89.0759182  64.0993690
 107.5531578  33.7002993  64.7908974 107.5996590  34.5567870  64.3660450
 107.6873207  33.8863134  65.7202101  45.9753466 101.3814735  18.6644471
  45.7547617 101.3758087  17.7330279  46.2635279 102.2778225  18.8368881
  85.9378433 101.9458294  88.5931015  85.7986927 101.3733959  89.3475533
  85.6584167 102.8105545  88.8937855  19.8645949  74.9703503  61.4290857
  19.7653389  74.0825748  61.7729473  20.0854039  75.5005121  62.1948576
 112.5132919  29.5282722  76.0558748 112.2147684  30.2079391  76.6601658
 112.4556183  28.7169504  76.5605116  21.2036633  65.6937218  53.0834246
  21.7760134  66.2706375  52.5776434  20.7445598  65.1736116  52.4239206
  14.7002912  30.4206085  55.7706928  14.2640340  30.1135087  54.9759579
  14.9061954  31.3380861  55.5916119  24.7211123  67.2205067  67.1996975
  23.8428640  66.9184017  67.4313164  25.2678823  66.4372730  67.2615290
  22.1816921  17.9838634  75.0061846  22.6362085  18.6396050  74.4773674
  21.5278220  18.4825432  75.4960871  34.3177199  23.7151122  67.1742964
  34.2757440  23.7721944  68.1288719  33.9420819  22.8590178  66.9688034
  90.1659393  29.6238041   2.0652956  89.2346478  29.4597363   2.2136387
  90.5883408  28.7831903   2.2418818  17.1890676  90.4627419  72.6058674
  18.0616856  90.6225395  72.9653597  17.2874951  90.6075764  71.6648245
  48.6274719  86.2270260   2.5136095  47.9294586  86.4762020   3.1193486
  49.4330072  86.5074253   2.9480338  20.4900813  84.1572857  76.1646843
  20.4288030  84.8793030  75.5392504  21.1146021  84.4627190  76.8226480
 111.9203517  60.9056091  77.0079184 111.0029700  60.7106400  76.8165302
 112.1624111  60.2759409  77.6870012 108.9226818  72.0201445  83.7340069
 108.1946754  71.4254904  83.9146042 109.1196728  72.4215508  84.5803547
  35.7871556  49.8578453  65.2903128  36.5320086  49.4860125  64.8179102
  35.1112366  49.9696922  64.6218395  77.1665096  42.1439075   4.8143584
  76.2296057  42.3005199   4.9323013  77.5671148  43.0085373   4.9047002
  63.2205105   6.8175930  25.9888673  62.5183487   6.7144012  26.6311669
  63.9068842   7.2915554  26.4584231   4.6733269   4.7060090  17.2675610
   4.0783492   4.0988687  16.8275440   4.0963268   5.3330243  17.7036273
  46.1499786  40.0212717  77.0871305  45.5660915  40.7433891  76.8550682
  45.8302164  39.7183442  77.9369640  48.0944109 103.6547661   9.8761332
  47.4506807 102.9630280   9.7233772  48.7246561 103.5573196   9.1623205
  11.5604377  24.2586255  69.1220379  11.6654623  24.2944026  70.0727892
  11.6814113  23.3348775  68.9023018  85.8748436   4.0759194   1.3497730
  86.2938213   4.9334639   1.2769407  86.0281944   3.6615321   0.5006569
  69.3411922  30.0251031   0.3961412  69.3032742  30.6377792   1.1305941
  69.9181747  29.3238568   0.6987542  18.5256398  28.5745215  72.1356201
  18.8933635  29.3593431  72.5419044  19.2781448  27.9976201  72.0046520
   7.2801441  74.6267223  83.5262299   7.2833252  75.0460196  82.6657581
   6.7960703  75.2333641  84.0864944   6.5031058  59.6323967  50.0159931
   5.6777859  59.9393654  50.3912926   6.3282919  59.5629930  49.0774536
  40.9704733 100.4959297  19.9459291  40.2851200 101.0551167  19.5801044
  40.6031895  99.6127033  19.9106312   6.4645201  41.9081402  73.1899452
   5.9571600  41.6198826  72.4311781   6.3101596  42.8516483  73.2368708
  76.7199469  18.6421454   9.3521267  77.1502829  19.3834996   9.7780806
  77.3171997  18.3910453   8.6475241  89.5967102  24.3354273   5.0541109
  89.8667908  25.2351022   5.2381474  89.0465260  24.4053555   4.2739591
  61.1129236  20.6565499  40.0613976  61.0497427  20.3427958  39.1592884
  60.3515863  20.2775550  40.5006742  31.8254733  72.7817011  83.0321312
  30.9836316  73.0063486  83.4284496  32.4433231  72.7867413  83.7632084
   3.1051913  42.9741096  77.4239779   3.4073552  43.3343983  78.2577133
   2.2555643  43.3898497  77.2772598 109.9706173  63.3008957  74.1399384
 110.8529854  63.2965708  74.5109272 109.6694851  62.3965406  74.2276382
  45.6435013  90.0082207   1.8410219  46.5524483  90.2901363   1.9438663
  45.4938745  89.4102573   2.5733289  81.8896484   3.8386580  43.2637596
  81.2526894   3.2453260  43.6618471  82.6486588   3.2857433  43.0781984
 102.1852589  51.2018251  66.3976097 102.8136921  51.2107086  67.1195745
 102.5064087  51.8701744  65.7922935  16.2478781  77.2799301  57.4831057
  15.9440243  77.5984573  58.3330727  17.1636534  77.5547600  57.4377632
  97.1787262  90.2333355  68.1235409  97.8168488  90.1872349  67.4115705
  96.3295937  90.1481724  67.6900053  16.9107187  59.3405056  63.4467983
  16.9508445  60.2856827  63.3009911  17.0808351  59.2351246  64.3828487
  11.2989891  67.9260921  74.7156858  10.7955122  67.7782917  75.5162477
  10.8374810  67.4214792  74.0459061  14.7245514  80.1013756  73.7051821
  15.1804948  79.9298620  74.5291519  15.2512658  79.6545696  73.0424833
  14.4150245  51.3187981  45.1763535  14.4349194  50.3651953  45.0958824
  15.2935898  51.5991783  44.9199533  23.2717204  54.7514296  75.7255411
  23.9620829  55.1772070  75.2172613  22.9802465  54.0261030  75.1731157
  36.0830212  47.0462179  84.5621014  35.4319715  46.4784384  84.9743938
  35.5811548  47.5751352  83.9419270  27.1185279  81.5421104  76.6046000
  27.8509760  81.4462662  75.9958601  26.4081335  81.0397911  76.2055397
  37.8450942  30.4015589  83.6698151  37.8660703  31.0227919  82.9419041
  36.9639421  30.0287509  83.6412144  32.3853469  41.3394022  74.0150642
  31.5445280  41.0879993  73.6328936  32.1713853  42.0526552  74.6164942
  49.9572754  96.5885544   8.7820137  49.6401310  95.8640957   9.3212909
  49.1871977  97.1403980   8.6453485  17.8813243  45.1059580  47.0644140
  18.2182872  44.2276812  46.8874359  17.1424460  44.9642611  47.6562023
  99.3375492  33.0133343   6.6181940  98.8737011  33.8086247   6.3562995
 100.1350021  33.3299184   7.0425558  51.4341927   8.6782581  89.7892666
  50.5115557   8.4777635  89.9466801  51.4182806   9.4390845  89.2086411
  42.0990229  71.1115980  25.6203198  41.5160227  70.3851652  25.3997803
  41.8696451  71.8006086  24.9967146  15.5039036  18.4148121  73.6780024
  15.2505028  19.3370926  73.7156677  16.3004291  18.3635056  74.2063475
  61.0446978  83.9697742  17.3763633  60.2296019  84.3951988  17.1101522
  61.3933229  83.5932064  16.5683484  23.8469315  61.1963701  88.5811901
  24.1287494  61.7861557  89.2804527  23.2320356  61.7157173  88.0631065
  83.1615639  39.1574931  69.2162895  82.4410343  38.7615490  69.7064877
  83.0765343  40.0964022  69.3819857  23.4569764 100.6466103  31.7188215
  22.7997136  99.9657822  31.8627095  24.2625093 100.1656151  31.5291262
  69.3968248  12.8967297  13.8362122  68.7800074  13.0399191  14.5540309
  68.8425064  12.7505326  13.0696666  33.3757162  81.6370296   2.7676287
  34.2984271  81.5049171   2.9853064  33.3866572  81.9706249   1.8705052
  23.5245395  68.4282112  80.4138184  22.9575896  67.7615595  80.0260353
  24.2934060  68.4496498  79.8440647   3.6874235  55.7820368  55.2569008
   3.2220483  56.1798143  54.5210838   4.4191584  55.3152180  54.8533249
  72.7565336  14.0920055  17.0880854  73.2351398  13.4798586  17.6470494
  73.0304098  13.8684261  16.1985719   3.5834610  20.5957603  82.0079708
   4.4256082  20.4425168  82.4363804   3.0086955  20.8985257  82.7109718
  10.2198803  47.1577311  72.6970291  10.9283400  46.5377426  72.5240183
  10.4112875  47.9045486  72.1297026  98.7624168  71.5316200  77.4579430
  97.9264641  71.9977951  77.4674368  98.8481808  71.2119198  76.5597963
  32.0083213  87.6096916  53.5624743  31.5853715  87.1820641  52.8178406
  31.3340116  87.6303005  54.2415237  95.1026726  57.0700932  81.4891243
  95.0423241  57.5675583  80.6735802  94.9208736  56.1660957  81.2322712
   7.2696596  50.9663153  91.0105228   7.4372947  50.4405260  91.7926216
   6.3230288  51.1080790  91.0155964  25.9746718  17.3133159  42.9398775
  25.9867239  16.8724036  42.0903587  25.4432940  18.0963314  42.7958155
  21.6176128  57.4293518  76.8553448  22.5479412  57.6342535  76.9488144
  21.5840364  56.7857695  76.1475992  34.3028021  91.4774513  85.4883480
  34.1942739  92.1075249  86.2007141  35.0866246  90.9814453  85.7246304
  34.2707372  71.8009329  60.1127958  33.4113479  71.4191198  60.2914095
  34.0805268  72.6913309  59.8174238   1.1841268  44.3161106  68.5881519
   1.3597026  43.9351273  69.4485331   0.5867298  43.6965418  68.1692457
  20.8291650  78.8240194  54.4546890  21.6264606  78.3749914  54.1737509
  20.3167796  78.9265680  53.6527109  51.8751192  23.2193995   3.6537376
  51.5733910  22.8787017   4.4958287  51.0716534  23.4442759   3.1845805
  78.1266022  41.9823265  15.9388447  77.3681784  41.9372797  16.5210783
  78.1543446  41.1245966  15.5148625 101.8396950  27.1038437  58.4223890
 102.4744129  27.6595688  57.9701376 102.0056725  27.2585058  59.3523121
 105.9029198  67.7760458  57.4002409 106.2850571  68.3129263  58.0944777
 105.1634026  67.3348856  57.8182364 104.9505806  49.8407650  65.4493046
 105.2173710  48.9650345  65.1697397 105.6595612  50.1361895  66.0205364
   7.0929754  57.3563671  32.2901893   6.6362363  57.0463800  31.5081859
   6.8706846  56.7167521  32.9667330   1.8103741  24.3643832  87.1368504
   1.7942533  25.3051829  86.9611549   1.5165168  24.2851400  88.0443764
 104.7716045  42.4451733  25.8826852 105.6001759  42.8591967  26.1241078
 104.7184467  42.5516510  24.9329114  56.6267347  74.0087080   4.3459746
  56.5021038  73.2431030   3.7851256  57.2593737  73.7225199   5.0048351
  33.6738300  56.3620901  79.7260237  33.5161614  55.9447432  78.8791513
  34.5971823  56.6131496  79.7011042  29.5392919  56.4684725  58.2304811
  28.8735104  55.7814407  58.2612991  29.7187567  56.6694593  59.1489744
  12.3957527  34.4116712  69.6296692  13.1079388  34.3553042  68.9926100
  11.6115570  34.1766167  69.1336679  91.2037945   2.9176527  15.6043124
  90.8941650   2.0879290  15.2411091  90.5122948   3.5447171  15.3925395
  15.4907775  82.8637123  59.9703026  15.4718912  83.7649632  59.6484089
  16.2731838  82.4831867  59.5712137   7.5986737  46.3193321  71.8024540
   7.1906382  46.7814779  71.0702276   8.3892506  46.8240166  71.9935369
  18.3056951  60.1352644  85.1274014  19.0107214  60.6051397  85.5728149
  17.9315650  60.7789707  84.5258236  34.3511653  67.6884604  86.9667816
  34.5833874  67.4789047  87.8714275  34.8390889  67.0544481  86.4412403
  28.9307261  91.2368202  51.3080549  28.3058143  91.1538506  50.5877542
  28.4413648  90.9601021  52.0827675  13.9252675  62.4753380  59.4591522
  14.4120026  61.9238615  58.8466215  14.6007836  62.8998995  59.9879789
  14.9463797  84.7046566  72.9727507  15.1710999  84.8270607  72.0503902
  14.2024302  84.1024876  72.9601431   6.1276698  47.1768951  50.2715445
   5.2786738  46.7471218  50.3751326   6.4382941  46.8897629  49.4128847
  91.4489841  39.4937491  81.0260677  92.0399475  38.8875055  81.4726925
  91.3783264  39.1476345  80.1364422  67.0921516   6.3397413   7.7350527
  67.9048204   6.2738472   8.2365125  66.7478704   7.2066981   7.9497337
  40.8082724  63.5887194  32.4432659  40.7174635  63.6585760  33.3935833
  40.6476498  62.6641369  32.2546363  23.0010223  43.8781691  67.2403288
  23.3627129  43.1186390  66.7836809  22.7163768  43.5351753  68.0874205
  50.7316256  92.6213837   5.7538342  50.4846859  93.5180283   5.9802777
  50.3235769  92.0822144   6.4313519  92.0424843  62.0915222  79.2321253
  92.7261925  62.2019625  79.8928642  92.2312355  62.7638388  78.5774565
  10.0847042  56.3588953  90.4522038  10.6736290  55.8596230  89.8863983
   9.3511337  55.7663965  90.6166744 106.0189724  38.6893654  66.0566998
 105.4039192  39.2473006  65.5806255 106.8626785  38.8469863  65.6329775
  48.5900545  92.6536846  12.7586997  48.9453745  93.4076977  13.2292783
  47.6406240  92.7544975  12.8268683  89.4345474  68.5604954  84.6787167
  89.5861816  68.3465815  85.5993080  89.8032665  67.8201389  84.1969109
   5.4303098  61.6238070  59.2794180   5.5763531  61.2733555  60.1581001
   4.6031556  62.1008587  59.3462467  16.6896391  90.6770039  22.3944020
  17.3014665  89.9798393  22.1580505  17.2411168  91.3611698  22.7739096
  33.9543486  31.2091470  82.0747662  34.5609856  30.4943800  82.2679806
  33.6374378  31.4927363  82.9323101   1.7459841  79.9068308  81.9985390
   1.3597973  80.7742405  81.8773556   2.6543298  80.0813580  82.2448730
  28.4235644  98.9866257   3.2881147  28.7488532  98.2200241   3.7600654
  28.7726068  99.7333717   3.7747175  41.5559387  94.0880775  28.0502462
  42.1592283  94.7933960  27.8161716  40.8457422  94.1588116  27.4123979
  88.9951611  22.1146107   0.7473359  88.5927105  22.5988603   1.4682843
  88.6459827  22.5271463  -0.0426770  52.3857303  99.7260140   0.4987702
  52.4951883 100.6702517   0.6113323  53.2548018  99.3622921   0.6680378
   9.9214095  36.7296886  56.2197638   9.0144968  36.4317250  56.2901878
  10.2057207  36.8479586  57.1260834  59.7105646   6.6826147  18.8726115
  60.5749369   7.0769531  18.7560558  59.5668745   6.1793202  18.0711877
  29.1797328  69.0609407  18.7363374  28.2787442  68.8074684  18.9368355
  29.2314768  69.9823809  18.9903128  74.3307638  10.5799747   1.5923302
  74.9015093  11.3143730   1.8184759  73.6691618  10.5689836   2.2839907
 106.8523026  25.8745432  46.5706825 107.1635342  25.4089665  47.3469591
 106.7154598  25.1876473  45.9182405  51.2266779  57.9039431   4.7764063
  51.3675499  58.6547995   5.3531194  52.0793819  57.4711084   4.7341228
   2.4784960  36.6623092  26.3422990   2.9918084  37.2855210  26.8564463
   2.9601061  35.8382463  26.4144373  30.9095335  60.9840345  52.4181223
  31.2418461  61.4946651  53.1564045  30.1370692  60.5371952  52.7643442
 104.2511845  85.8431816  56.8120384 104.2652988  85.0165462  56.3296413
 104.6958542  85.6469059  57.6366425  85.3511047   9.4246095  26.7108345
  85.7227421   9.3272382  25.8341146  85.1328564   8.5320222  26.9789529
 103.5749435  85.8090305  71.6140318 103.0768204  85.9075069  72.4254560
 104.4808769  85.6954098  71.9014215  13.7352216  65.2923489  77.2680998
  14.2363358  64.4816923  77.1789455  13.6460698  65.6185341  76.3726187
  11.0589623  58.5799026  58.8253260  11.4422154  58.9772940  59.6072674
  10.7887578  57.7063847  59.1085005  92.5443935  19.1454768   1.9191696
  91.6235733  19.2298341   1.6717429  92.9166222  20.0120926   1.7559162
  30.8731294  61.8505383  75.4592276  30.0227475  62.0502234  75.0678062
  30.6963038  61.7895079  76.3979673  27.6056123  24.1650605  35.4219842
  27.5063086  23.3717418  35.9483027  27.7954221  24.8532987  36.0595822
   5.9774578  55.8607197  89.8371506   5.2183443  55.3222513  89.6134758
   5.6129092  56.5954018  90.3306866  43.1439829  32.3815989  50.2065849
  42.9469156  32.7206755  51.0797548  42.4031830  31.8125033  49.9978256
 101.5557384  57.8336716  65.4140139 102.1317863  57.2262907  64.9498129
 102.1436024  58.3407259  65.9739637  75.8480331 105.5032756  16.9560921
  75.0584000 105.9759375  16.6928387  75.5960209 105.0431306  17.7567089
   6.3909215  16.1066854  16.7172778   6.8058193  16.8726110  16.3204789
   6.0988158  16.4107776  17.5766003  22.2745419  65.9307146  78.5444403
  22.1258020  65.2355099  77.9035044  22.5059223  66.6961002  78.0182505
  76.7293453  89.3186665  12.6134443  76.2888002  90.0276184  12.1449006
  77.4661922  89.7434139  13.0526197   1.0756956  26.6322422  85.4646492
   0.9053422  27.5609612  85.6217861   0.4269078  26.3773751  84.8086357
  25.9748459  38.4526086  85.9191990  25.5190134  38.0758643  85.1665306
  25.2740955  38.7310171  86.5088272 111.3529205  43.2669687  60.9044409
 110.6160831  43.2250071  60.2948952 112.0514393  42.7776623  60.4698467
  36.1214352  58.5873938  51.1666393  36.1088061  59.1094255  50.3644180
  35.2219582  58.6260366  51.4917231   6.7537677  57.9887629  84.8871803
   6.6264242  58.3739614  85.7541561   7.0084381  57.0828962  85.0626278
   5.7821035  48.3218145  85.5617619   4.9231952  48.3350658  85.1394653
   6.3269615  47.7919817  84.9798393   8.2020372  29.9648666  65.6475687
   8.8033676  29.2378664  65.8091402   8.1710327  30.0426602  64.6940422
  13.3218014  68.2262039  38.4189987  13.9762795  68.4010172  37.7427363
  12.5371766  67.9723501  37.9330420  69.4109201  16.2620175  13.6118805
  70.0302553  15.5568457  13.4237647  69.6879816  16.9817245  13.0448782
  73.3387184   6.2650877  65.9090710  73.5927248   5.3783733  65.6532335
  73.9393759   6.8344510  65.4281664  99.5216846 101.7842770  27.6634288
 100.1035786 101.8778801  28.4176636  99.8054695 102.4672413  27.0557642
  83.7387562  19.2107582   5.4282856  83.0116367  19.8140168   5.5819350
  83.4963703  18.7419605   4.6297190  32.3501348  84.0491104  88.1932831
  32.5927806  84.1415787  89.1145897  31.7456770  83.3070564  88.1781197
 109.8464966  47.5608110  62.0899534 110.1613808  47.7087498  62.9816866
 110.6300259  47.6307201  61.5445852  66.7108822  22.0279741   4.1030261
  66.7178202  21.4016223   3.3792403  67.3631001  22.6843405   3.8580185
  26.6199684  28.9222813  64.5559502  27.2614694  28.5551190  63.9477539
  25.7854128  28.8576698  64.0916491  32.0285916  66.2722492  15.2612329
  32.3001504  65.3576612  15.3387856  31.7965722  66.3757753  14.3383670
   9.6149105  58.7833405  53.2256556   9.3924785  58.3844423  54.0668678
  10.5489743  58.9810896  53.2938719  23.6989832  81.6359520  18.4537423
  22.8158140  81.8809414  18.7298274  23.9755464  82.3476601  17.8764915
  19.4224381  50.6960630  88.8975811  18.4812570  50.8426952  88.8031960
  19.5123804  50.2528811  89.7412205  81.7473276   0.7896775   6.0876942
  81.5828855   1.6845769   5.7904613  82.4568756   0.4773874   5.5262208
 111.1574078  47.5901079  64.4292164 111.1504650  46.7450523  64.8787260
 110.6517029  48.1689882  64.9996519  27.1947503  62.5023365  83.1039047
  26.7980886  62.4290276  83.9719582  26.5050673  62.8774738  82.5563240
  48.2111120  80.7297611  10.5103230  49.1256952  81.0098076  10.5470181
  48.2286835  79.8163128  10.7958496  22.2875690  98.3819675   9.0512693
  22.3698092  99.0034008   8.3278829  21.6092706  98.7567997   9.6130896
  87.0347977  24.2668700  88.5691643  87.0017338  23.5286593  89.1775894
  86.3780022  24.0591121  87.9045773   4.6797702  32.9673767  73.0496931
   4.9851304  32.9526925  72.1426296   5.4094666  33.3434153  73.5420036
  59.3180132  61.6740704  90.2793789  58.3838606  61.4843798  90.1921558
  59.5059824  62.2847223  89.5666313  66.4893961  89.3252659  21.2878299
  66.6685486  89.9278259  20.5659890  67.0482969  88.5682774  21.1122465
 105.7788086  57.9819489  70.6867981 105.3707600  58.7926435  70.3826714
 105.1728344  57.2923994  70.4155970  28.7464738  79.4895315  51.9470882
  28.8992667  80.0873566  51.2153149  29.1211748  79.9381351  52.7051067
 106.0411644  35.2900934  59.9502707 105.5594254  35.5207491  60.7446003
 105.4187202  34.7796321  59.4323730   1.7509760  89.5647430  83.8884640
   2.1195175  89.1860008  84.6865559   1.8110254  88.8628674  83.2403851
 102.7282333  47.2182369  86.2924767 102.5679398  47.0112228  85.3717804
 103.1006241  48.0999136  86.2784100   6.8217957  34.2771673  81.1136818
   7.4989986  34.1593122  81.7798138   7.2863895  34.1884375  80.2815056
  24.0969086  24.6688485  91.9549751  23.8517308  24.1631317  91.1801338
  24.9155426  24.2711091  92.2514153  20.7529449  84.5264721  59.8338556
  20.2539706  84.6419525  60.6425047  20.9398031  85.4175472  59.5383978
  14.2536879  60.6500196  77.6687193  13.9709830  60.2421093  76.8502331
  13.6144245  61.3455582  77.8229856 104.2955780  54.9815035  76.5142632
 104.7732735  55.1079273  75.6944704 103.9447594  54.0930557  76.4524889
 112.4870491  62.8302193  75.3959227 112.8195953  63.6183167  75.8255100
 112.2300911  62.2549486  76.1165237 110.9522057  50.3110313  74.0933371
 111.8484879  50.6385899  74.0183544 110.6522465  50.6269979  74.9456406
  22.3063827  45.0272512  88.0238628  21.8856430  44.1685867  88.0674934
  21.6785526  45.5781221  87.5563145  85.6450653  48.1235123  77.8377724
  85.8531952  47.2778845  77.4405003  84.9731064  47.9231358  78.4893465
  33.8926172  45.4318953  73.7632179  34.0790081  45.7000256  74.6629906
  34.7422075  45.4623938  73.3233356  10.7581055  86.6745090  81.4643288
  11.6545308  86.6891575  81.7996502  10.2173829  86.4968014  82.2339249
  75.3584051  35.6003332  14.5165551  76.3112736  35.6720519  14.4606483
  75.1790476  35.5166864  15.4530728  20.5544090  96.3467693  14.6228862
  20.5223727  95.3901196  14.6271288  20.2321577  96.6010475  15.4876006
 107.9788685  92.9587841  81.4454937 107.9551792  92.9103947  82.4011803
 107.1310616  93.3314228  81.2034512  21.5461063  41.2675905  50.6179714
  21.5174389  42.1341419  51.0235596  21.9021964  41.4241552  49.7433758
  80.2036953   9.6557909  23.9569116  79.2802954   9.8789424  24.0742826
  80.2034378   8.7123114  23.7954211  94.0111351  75.2363586  69.7324371
  94.7641087  75.7837200  69.5095778  93.3355331  75.8575726  70.0042439
  27.7610230  63.4797192  59.7061062  27.9076171  63.2831717  60.6313658
  28.2346821  64.2980623  59.5571184  13.3512604  79.8012447  80.0440693
  12.5151062  79.4876671  79.6994734  13.4342766  80.6902122  79.6989870
 109.3489075  41.8215084   4.8165828 109.4325447  42.7379560   5.0799531
 108.4843445  41.5593529   5.1328808  38.8913918  92.3231411  80.3118801
  39.4612789  92.9802322  80.7114887  39.4730568  91.8119526  79.7492170
  29.9508858  68.7963963  65.1652765  30.7861638  68.4978771  65.5250406
  29.3145847  68.6187553  65.8579493  16.3323963  82.0002937  82.7291870
  16.0757959  81.1751080  83.1408215  16.0453272  81.9139194  81.8201351
 109.3986702  69.3671703  72.4827194 108.7338161  70.0323915  72.6606941
 110.0156403  69.7975349  71.8907976  93.5340977  96.5089417  72.5445557
  94.0080452  97.2304344  72.1309614  94.1184616  95.7561016  72.4552298
  21.2871814  60.8317137  67.5374222  20.7155275  60.0705767  67.6379776
  21.8503118  60.6119347  66.7952538   6.7044812  64.8864651   4.9426818
   7.1277493  64.1702175   4.4693202   7.3728096  65.1982021   5.5529177
  99.0756893  59.1007614  72.1886396  99.8993874  58.6141491  72.2196722
  98.9854717  59.4750738  73.0649900  31.4955211  60.5946684  80.4675674
  31.7636657  61.1907959  81.1668301  31.4499950  59.7363758  80.8888721
  88.1989193   1.2196232   1.2848292  87.2485447   1.1189333   1.3385732
  88.3311367   1.8916717   0.6161729  88.7630272  21.3347793  28.4907937
  88.7355232  21.5158892  29.4303012  88.7764835  20.3795242  28.4313107
 112.1157527  46.0247040   7.6787037 112.2897322  45.8842087   8.6094153
 112.4887406  46.8864012   7.4927294  66.4932013  34.9816847  36.4796996
  66.9211197  34.6050787  37.2486496  66.7992830  34.4451857  35.7484579
  61.7573738  93.4897423  10.4451036  61.5704679  93.9767551   9.6425349
  60.9752035  92.9572868  10.5898106 109.0730762  76.7915058  49.8666811
 108.8319588  77.0355892  48.9730835 109.0754414  75.8343267  49.8611546
 100.9170818  74.3452930  44.6265554 101.3912678  74.5307875  43.8160181
 100.7071972  75.2080631  44.9840593   5.6080252  80.9127998  69.7694445
   6.3329637  80.5580902  69.2547894   5.7303405  80.5414391  70.6431484
  15.9778166  42.9927540  81.1640263  15.5554628  43.3240318  80.3714943
  16.8357289  42.6878405  80.8686543  12.8486824  69.6839380  69.5269346
  12.7392960  70.0750875  68.6601782  13.7874424  69.7488785  69.7022772
 111.6237164  57.0074749  90.2327538 111.8810177  56.8200254  91.1354637
 111.5415573  57.9605865  90.2001190  76.9910908  40.5141926  12.2880638
  77.2446871  40.3614044  13.1983256  76.1764669  40.0231743  12.1807361
  97.3485279  38.8577199  36.2290454  97.1020222  39.7813988  36.1812186
  98.1517410  38.8508272  36.7496443  37.4174094  53.6157656  82.7984142
  37.1264124  53.9418316  83.6500168  38.3730555  53.6444902  82.8447533
   6.1501342  23.2311249  20.6831455   5.7899100  23.3904552  19.8107445
   5.3856921  23.0405307  21.2267756  27.8904033  79.9788713  59.3408060
  28.3858490  80.6226635  59.8470640  27.0115924  80.0012684  59.7195196
  42.6019096  47.8751373  70.2949190  41.6757345  47.8702641  70.0532532
  42.7016306  48.6515760  70.8457613  25.2475333  82.0900631  85.7841873
  24.3965435  82.3419094  86.1428356  25.3981733  81.2073135  86.1222649
 105.3455162  97.8925323  91.2748146 105.7023811  97.1527863  91.7664146
 106.1138058  98.3267212  90.9040928  23.1278443  60.2633476  54.8375940
  22.5855231  60.8771038  55.3329945  23.0794501  59.4463587  55.3340054
  22.9104829  87.4271870  80.8878899  23.2717204  87.6290131  80.0247574
  21.9622779  87.4840069  80.7699490  83.6177158  70.3016949  49.5649099
  83.0611992  69.8090696  48.9617109  84.4328403  69.8012400  49.6016550
 103.2621956  92.8454399  90.3352165 103.5185719  92.9215431  89.4161320
 102.4130058  93.2844353  90.3841305  31.8153381  42.8487206  57.3635292
  30.8596921  42.7997732  57.3395157  32.0095062  43.3544254  58.1526995
  33.7600732  58.6477089  67.9720354  34.0285730  57.9792738  67.3416901
  34.5524359  58.8340044  68.4757090   2.4723265  40.3078461  14.9629283
   1.8570231  40.6913185  14.3379629   2.5521889  40.9649611  15.6543398
  28.5076499  43.6209345  52.5914526  28.7847447  42.7073050  52.6602364
  29.1952753  44.0415525  52.0752335  28.7022114  75.0164652  82.7784729
  28.1419086  75.7891941  82.7064896  28.5093474  74.5066309  81.9916439
  17.9421473  81.2395000  87.0597935  18.5248566  80.7964897  87.6765823
  17.5629032  80.5320835  86.5382767 110.1630497  36.3309765   2.0107785
 110.8068466  36.8101406   2.5324649 109.7488689  35.7323194   2.6323062
   0.2533133  45.9190369  13.3449435   1.0143390  45.3527689  13.4730649
   0.5312805  46.7726278  13.6771238  81.1968231   2.5663301   2.4573071
  81.6899395   3.0742154   1.8130103  80.5519485   3.1822839   2.8051239
  11.7630720  73.9206886  55.8027506  11.4059985  73.4433556  56.5516758
  12.0280373  74.7672129  56.1625051 105.0982857  61.7746592  78.4482574
 105.0916958  62.7313805  78.4778023 105.7456398  61.5602255  77.7765560
  18.9286852  49.6401072  61.1742496  19.8228240  49.6901417  60.8362484
  18.6995733  50.5462837  61.3805962  45.2933645  46.9034910  84.1254711
  45.2744961  46.2216711  84.7970390  46.2237978  47.0890856  83.9986610
   9.9743849  37.8449202  68.5509253   9.9930733  37.9833174  69.4978809
  10.8373046  38.1297779  68.2501602  75.2611017  98.8961697  87.2178173
  75.2674627  99.1246319  88.1473255  74.4451666  99.2698669  86.8848991
   4.7412297  78.9950562  79.0374422   4.8384619  79.3683338  79.9134827
   5.5399722  79.2528534  78.5772419  18.9829481  70.4226875  66.0329580
  19.1325724  69.5963526  66.4923191  19.6930540  70.4729986  65.3930759
  37.9946041 102.7553463  73.5650682  37.4484205 102.0563698  73.2054138
  38.8177013 102.3230171  73.7927389 102.0760727  29.5509529  44.4059563
 102.3023605  30.3298187  44.9142838 101.3216972  29.1780519  44.8621321
  51.1529636 105.1041603  16.0755718  50.2117252 105.0737572  15.9041810
  51.2764931 105.8994484  16.5937304  29.2287469  66.4044523  74.6112871
  28.4597802  65.8991814  74.8751497  29.9490857  65.7745647  74.6355104
   7.3783451  80.7478142  78.8306093   7.7027410  81.6413212  78.7181997
   7.4071097  80.5996990  79.7758436  36.9163728  55.9224224  50.4277277
  36.4315462  56.7335224  50.5803585  37.8336310  56.1941290  50.3954124
  15.8426630  70.6185007  84.2902184  15.1138318  70.2766705  84.8080826
  16.4306641  71.0121059  84.9348545  35.5386615  96.5182686  71.8653822
  36.1965227  96.5036869  72.5605345  35.1327276  95.6521606  71.9015789
  29.2076921  39.4944525  60.4254770  29.8716426  38.8093376  60.5030489
  28.7062311  39.4351840  61.2386560 111.6944504  83.8243008  53.8498592
 112.3975372  84.4609165  53.7208843 111.5053749  83.8629341  54.7874022
  81.3805962   0.6453414  63.8838577  81.0848236   1.5380299  64.0623522
  80.7854462   0.3270532  63.2050943  89.7221279  44.6112061  75.1019239
  89.6918297  44.2257214  75.9775496  88.8168144  44.5756102  74.7931051
  14.5225167  38.8956833  82.9298401  14.7951329  39.7499371  83.2647419
  14.2588115  39.0659738  82.0255756  28.2639360  49.6306515  47.9004383
  28.3967352  50.2046776  48.6548138  29.1323042  49.2726135  47.7161026
 112.0922852  57.6160479  67.1453381 111.6687298  56.8478107  67.5282764
 112.8736973  57.7509069  67.6814795  16.8086421  46.3499355  67.3254061
  17.2969139  45.6044102  66.9761038  17.4350274  47.0736170  67.3127699
  95.2112961   1.4395167  33.7162089  94.8877907   0.6856197  34.2093778
  94.4208336   1.9118556  33.4548688  10.2910268  39.1718245  41.6518497
  10.4411995  40.0979853  41.8413401   9.5408934  38.9343858  42.1969700
  14.6605372  71.6089058  51.5499401  14.1585732  70.8005428  51.6539288
  14.6340084  72.0201302  52.4138975  13.9492595  61.7390203  88.4070587
  13.0027711  61.7138577  88.2664967  14.2381561  62.5295830  87.9512215
  10.7238650  74.8547649  32.3376751   9.8288423  74.5206976  32.3973918
  11.1533237  74.2775774  31.7062855 107.6730156  93.6851597  63.5353374
 107.8925037  92.7779102  63.3233213 108.4974003  94.0668201  63.8369370
  53.6417675  86.3620186  81.0620785  54.1905642  85.9428883  81.7249298
  53.1400347  85.6434155  80.6772232 101.4232349  78.1616688  90.0397396
 102.2234917  77.9531908  89.5577049 100.7836151  77.5199509  89.7310066
  15.5599010 101.2303829  89.5442104  15.1915789 100.6599617  88.8695335
  15.8729219 100.6299591  90.2207756  94.6551037  55.6282997  67.0213270
  95.3668594  54.9910450  66.9618273  94.4327068  55.6527758  67.9520082
   3.4444901  64.0810585  78.8751793   4.2407584  63.9121294  79.3788147
   3.2124633  63.2308483  78.5016346  13.8200569  48.7471533  60.5541372
  13.2705140  48.9630508  59.8007298  13.9820719  47.8074360  60.4709768
  24.1160583  47.8870010  48.4291029  23.8099027  47.7110577  49.3187904
  24.2868590  47.0209599  48.0589199  29.4930291  48.8071823  66.6331863
  29.0850711  48.0118418  66.9755793  28.7806058  49.4454622  66.5974188
  31.2879920  90.4179955  15.3889382  31.2466216  89.5849514  14.9193048
  30.4194021  90.5164909  15.7789159 106.7567158  40.2062511  31.9575644
 106.4011097  40.0875139  31.0768390 105.9900856  40.3787470  32.5041533
  66.1929703  25.6513524  40.3582287  65.5779696  25.6117249  41.0906458
  65.6616688  25.4490876  39.5881367   7.2368950   2.4763419   5.1007187
   7.4989319   3.3260107   4.7462735   7.1518362   2.6255712   6.0423809
  19.4119036  72.1389866  74.3318510  19.0558577  72.9901409  74.0768909
  20.3505445  72.2103119  74.1583681  43.6524773  92.0651436  39.4286203
  44.5077372  92.4915028  39.3740487  43.1613684  92.4175835  38.6864400
   7.7140206  31.2010002  88.6731529   7.2876263  30.3762650  88.9060307
   7.0748317  31.6542077  88.1233597  79.4675064  62.1083117  30.4634619
  78.7693310  61.5796375  30.8498383  79.8125362  61.5672445  29.7532248
  93.1752491  12.3831415  11.0251999  93.1178474  11.7661190  11.7547333
  93.3339214  13.2308733  11.4404190  22.4134922  87.6795578  87.4722385
  22.1641445  87.5068283  86.5643692  21.8024802  88.3562183  87.7638340
 110.4466057  79.3645477  81.7602825 109.8139381  79.1799927  81.0660839
 111.1070728  79.9167299  81.3418198  93.6768436  55.9906960  21.7330241
  92.8026390  56.2838936  21.4760470  93.5421753  55.1068068  22.0748305
 112.2877216  43.9820480  57.5807142 112.1891403  44.7118092  58.1922388
 111.4329052  43.9079905  57.1564007   1.4937699  69.8430252  68.1711197
   0.9710283  70.0102139  67.3868847   2.2405353  70.4366159  68.0922318
  83.7282372  31.1073422   4.6703857  83.2376575  30.7620692   3.9244926
  83.0565071  31.4411473   5.2650231  38.4296632  69.9618006  88.9290905
  39.0212607  69.7794962  89.6591663  38.0264497  70.8009958  89.1513538
  58.8793993  90.4836845   1.3783686  58.0857277  89.9565983   1.2861678
  58.5681963  91.3320160   1.6941546  45.7561827  98.0332279   1.5709800
  46.5898466  97.6153088   1.7868254  45.2019405  97.3165989   1.2619683
  20.3596187  54.8041534  71.9655561  20.8701015  55.6138372  71.9580984
  19.7963202  54.8832417  72.7354097  98.2075882  20.8360934   7.6660919
  97.5866413  20.2763629   7.1998775  98.4442329  20.3337502   8.4457582
  62.2548389 105.5769730   3.8828599  61.8465424 105.8762074   3.0704635
  62.9639435 105.0012398   3.5966197 105.7069016  31.4343357  26.7220926
 105.5400276  30.9329200  27.5201941 106.3217258  30.8951259  26.2246203
  22.0197797  69.1346455  61.8802500  21.4382124  69.1483879  61.1201048
  22.8885388  68.9688492  61.5141916  34.2429042  81.0330582  75.0330114
  33.3576512  80.7427406  75.2527285  34.1315866  81.9352341  74.7331381
  73.5363722   3.5358450  91.5107441  74.3254328   4.0711832  91.4269161
  73.8612318   2.6369923  91.5632915  71.7984962  75.5624199  12.4147332
  71.8746662  75.6180573  11.4621925  71.7282391  74.6249866  12.5950444
   5.0507700  81.6860104  54.0973377   4.6078905  81.0181332  53.5738611
   4.4676128  82.4442101  54.0613174   2.9369938  54.2526007  20.7867742
   2.7746606  53.3485174  21.0560632   2.5275913  54.7832537  21.4701676
  79.5043182   4.2284626   3.7484714  78.7560987   4.1405964   3.1579781
  79.5853090   5.1710874   3.8938347  90.5000591  53.8811636  13.4046030
  90.3309727  53.2979631  14.1445482  89.6717930  53.9064932  12.9254651
  21.6088414  50.9074974  72.8394699  20.8385038  50.5266333  73.2610798
  21.9082427  50.2312183  72.2318220  23.5539412  69.9484015  47.2384405
  23.4799552  70.5430079  47.9848957  24.3796921  70.1912975  46.8196678
   3.7320641  62.4213505  87.0806980   3.5943124  63.3415318  86.8559265
   4.6815008  62.3353577  87.1667671   8.4535021  98.5469818  80.8111095
   8.1872016  98.5862446  79.8925400   8.7382585  99.4375324  81.0162067
  84.6976662  69.1213274  13.8408208  84.2819595  69.7371721  14.4442749
  84.7662354  68.3069849  14.3391967  20.6631565  33.1103659  52.5081015
  21.2685823  32.4332857  52.2060204  19.7969782  32.7115512  52.4249601
 100.7245159   8.2296926  14.5277393 101.0987377   8.9092863  13.9670801
 100.2671623   8.7122792  15.2163386  73.5245323  64.6373558  20.0934362
  73.4412050  65.4767036  20.5459690  74.4281054  64.6240759  19.7778285
  70.7705975  36.3356853  24.3929410  71.6018152  36.4629579  23.9356542
  70.5454540  37.2040868  24.7267389  16.1015570  62.3836279  71.6072941
  16.3817656  61.4966440  71.3815260  16.1919510  62.8780127  70.7926512
   7.5621760  55.4343796  62.8357601   6.6696703  55.7540035  62.7034569
   7.6807117  55.4412413  63.7855673  54.0574884  93.9154625   6.3682705
  54.5395708  94.0368271   5.5502874  53.9021969  94.8039150   6.6888446
  11.7361772  45.4908895  60.5076027  11.4853311  46.0945940  59.8084259
  12.4796867  45.9155846  60.9354544  43.8740301  92.6509571  72.1439791
  44.6192598  92.2469807  72.5885820  44.1518831  93.5524559  71.9817162
  31.3885617  21.2789130  59.0200901  30.8371782  21.5638447  59.7488022
  31.0549808  20.4110909  58.7923956  88.5951424  30.1422954  18.8488400
  87.8196812  30.5140615  19.2691660  89.3044662  30.7410598  19.0824521
  21.2041187  36.3700604  62.8801441  21.2013745  35.7677460  62.1362114
  22.0824409  36.2878346  63.2516527  15.3835607  93.2653332  60.1257277
  16.1014950  92.8965378  59.6111488  15.8166349  93.7831116  60.8043957
  12.4353623  69.4613409  83.6407852  12.8105009  70.1339006  83.0723095
  11.7629898  69.0417910  83.1040096  34.8403502  74.4413567  89.3479443
  34.9386811  74.1039562  88.4575939  35.7192612  74.7308064  89.5928192
  24.8201776  75.5750275  60.4624557  25.5650020  75.3263569  59.9150658
  24.1472077  74.9248457  60.2609396  53.0933666  74.9921894  55.6973553
  52.3113918  75.3533030  55.2798080  52.8879786  74.0668583  55.8307981
  89.5534611  93.3583641  70.5207872  88.8853931  93.6494923  69.9001789
  90.1603127  92.8390026  69.9933147   8.2322121  77.6713705  62.2807503
   8.7475085  77.8869343  63.0580759   7.3882616  78.0987597  62.4267578
  41.5999126  85.7429028  67.6189661  41.9904423  86.5362263  67.2524166
  40.7321024  86.0178280  67.9148579  30.4082227  54.4766855  69.6008110
  29.6493173  54.6701097  70.1511574  31.0950994  55.0580406  69.9270916
  95.8778858  29.9094057  34.6375394  96.6273499  29.5088029  35.0780630
  95.1784039  29.2608905  34.7173953  21.9575524  93.0504417  70.4603958
  22.0132828  93.2794189  69.5326614  22.2101045  92.1278095  70.4949713
 110.6910515   8.7267226  15.0104427 111.4317799   8.3706009  14.5197952
 109.9963188   8.8229364  14.3590415  93.6606026  90.6196976  71.2726593
  94.4165802  90.3286934  71.7826176  92.9476738  90.0454330  71.5522718
 104.7215939  61.7798233  20.6237173 104.5969296  61.4238405  21.5034723
 104.0260506  61.3790035  20.1023746  13.4500790  72.6305676  88.9598083
  12.9433572  72.4928474  89.7601223  13.5975480  71.7498302  88.6151600
 104.2226410  89.5922279  69.3403435 103.7152958  89.1970158  70.0493050
 103.8799381  90.4830742  69.2683172   8.6833298  21.0239553   1.2979792
   9.0905297  20.5184960   2.0014924   8.4539241  20.3715754   0.6361599
   0.9445935   8.2145005  15.5936110   1.7281270   8.7638593  15.6162417
   0.8086765   8.0293083  14.6643853  15.4590464  86.9296551  77.6524687
  15.0005269  87.7165794  77.3579454  14.7621524  86.2958813  77.8224707
  14.3821788  89.0173912  90.4835320  14.5952690  89.5513058  91.2488842
  14.6042502  88.1239128  90.7454586  84.5568371   0.2162519  88.7978649
  83.9516830   0.2387334  88.0565643  85.3240967  -0.2504759  88.4666348
  65.5494452  21.9697452  42.7586937  66.0718346  21.6683316  43.5019922
  64.8507404  21.3204885  42.6780272  68.6599684 102.1792603  36.7628431
  68.4991407 102.5816917  35.9093690  69.3479347 101.5345192  36.5978146
   2.4985756  60.6160021  85.1320362   2.7360317  61.3246679  85.7300663
   1.9195470  61.0277748  84.4906330  21.2128282  61.2113905  82.5187778
  20.6063485  60.4788160  82.6271629  21.4319706  61.2050676  81.5870190
  51.6784477   4.1821033   2.0828943  51.2935734   5.0094694   2.3719797
  51.4804363   3.5663536   2.7884972 109.1000843  96.6872120  79.1112852
 109.5004749  96.7438316  79.9788809 108.1672859  96.5619564  79.2856932
  13.2128644  86.3535690  83.2153320  12.5169611  86.9997597  83.3353043
  13.9858449  86.7581177  83.6091232  36.4269423  88.8333511  42.2936773
  37.0110154  88.2940292  41.7605543  36.2927485  89.6262741  41.7745495
 110.0877285  16.8702757  10.4145074 110.8406353  16.6020715  10.9412181
 110.3993034  17.6281703   9.9197841  20.8790946  85.5114269  84.7923851
  21.3552475  86.3116932  85.0139236  19.9561596  85.7504654  84.8777199
  10.4268754  76.1455011  88.6319065  10.7813871  76.9842863  88.3369637
  10.7738304  75.5066013  88.0092812  17.4335575  76.2347507  46.2173367
  17.2712755  75.4677916  45.6680918  17.6172864  75.8737278  47.0845938
  60.3981066  84.7091293  59.2957306  60.4430723  85.6550503  59.4351864
  60.0738716  84.3597984  60.1258373  97.0619678 102.7575970   2.5011995
  97.4757385 101.9759369   2.8673226  97.6423931 103.0242062   1.7882746
  98.4595680  56.1827421  70.7428074  98.8534260  56.5236330  69.9397469
  98.8073540  56.7429590  71.4366627  60.5566263   4.5554167  81.3792229
  59.6366549   4.6892741  81.6071987  60.6783438   5.0546408  80.5716419
   7.3388165  74.7671986  76.4949751   6.4416456  75.0195885  76.2767649
   7.4308610  73.8817978  76.1430836  67.4222517  19.9958968   7.4089354
  68.1752396  20.3590417   7.8751570  66.6833258  20.5352950   7.6904845
  82.9528999   4.5345199   0.9415678  82.9255676   4.7119388   0.0013513
  83.8749790   4.3541801   1.1245712  17.7327359  81.5900707  42.6097536
  17.5401628  80.6909847  42.8758097  18.4287393  81.8716812  43.2034779
  28.7367630  32.2301626  54.5049477  29.0233779  32.2303891  55.4182291
  27.9350471  31.7072058  54.5056486  27.6400900  60.6368113  89.4760418
  27.4981976  60.0340128  88.7461567  28.4814262  61.0511303  89.2844105
  89.8883152 103.2911587  57.0598650  89.5480061 102.5090504  57.4942923
  90.4388714 102.9525566  56.3538361  28.5169625  76.0395336  86.4616108
  28.6956429  75.4939079  87.2275066  27.6280236  76.3656092  86.6019535
  34.2734623  60.1130724  37.4373221  33.6614537  59.7610235  36.7909932
  33.8911438  59.8771620  38.2825494 102.1470547  35.2245808  22.4852848
 102.7507973  35.1749277  23.2264018 102.7081680  35.4040527  21.7308521
 110.7456303  44.4479370  22.3001337 109.9774647  44.9619198  22.0512009
 111.3389015  45.0829220  22.7014422  12.9337752  92.3700237  75.1761580
  13.8662779  92.2944164  74.9737883  12.4991739  91.8486309  74.5012474
  55.6737137  86.7894745  25.3962302  56.3322592  87.0223713  26.0506868
  54.9890804  87.4503899  25.4996419  59.5789425  19.8630812  91.4876380
  59.7921746  20.0787260  92.3955287  58.6226361  19.8266699  91.4683620
  40.2672291 104.0715504  32.6497912  39.7681260 103.5971355  31.9849181
  41.0953283 104.2857552  32.2201371  73.3617258  95.7178783   2.1385998
  72.9254103  96.5059471   2.4623424  72.7501535  95.3505325   1.5004265
  62.7118206  85.4084682  30.2681613  63.1902838  85.6620026  31.0574841
  62.4815893  84.4905853  30.4120898  65.4574776   3.7382066  80.7709885
  65.7248020   3.9201048  79.8700523  66.2445879   3.3881971  81.1883450
  27.8703308  76.8798590  73.3129454  27.9846311  76.2710762  74.0427113
  27.0784473  76.5759706  72.8693151  15.9741426  37.0858383  65.7749748
  16.3900268  36.2953687  65.4308367  15.0358367  36.9023228  65.7287645
  20.6587505  70.0566578  55.1464415  20.8645701  69.2255211  55.5743170
  19.7801733  69.9304581  54.7881079  29.5122910  73.6396408  67.7497482
  30.0522161  73.1406355  67.1368027  28.8613462  73.0111647  68.0620289
  45.7250452  52.8340101  53.5337877  46.0864162  51.9859791  53.2759333
  46.4911318  53.3635569  53.7549686  19.4639683  57.4400949  78.6018896
  18.6881173  57.3386955  78.0505228  20.1987576  57.2495842  78.0187798
  36.9279790  91.5071964  86.1515045  36.9687891  91.9036293  85.2812195
  36.6778660  92.2268200  86.7310047  81.6813660  64.7727728  78.1606197
  80.7373333  64.8468637  78.0208445  81.8098831  65.0354385  79.0720606
 101.1710072  73.1787062  91.0989094 101.3334179  73.9183378  91.6843987
 101.0585213  72.4299097  91.6844749  45.5256605   1.7268677  82.5684071
  45.5677938   1.5307465  83.5043526  46.1142683   2.4728674  82.4532795
  19.2625248  92.1361637  53.1424856  19.8531103  91.9052219  53.8595009
  19.4622588  93.0530167  52.9535294  22.3346496  62.7209139  77.6161194
  21.8352604  61.9053268  77.5753212  23.2234931  62.4464893  77.8416824
  40.7965851 103.6739922  76.2047386  40.9142971 104.4038582  75.5967331
  39.8481822 103.5546684  76.2549448  10.5030787  76.5953350  67.1044922
  11.1399102  76.9824266  67.7051878   9.7435582  76.4006042  67.6535273
  19.9247158  98.2036114  76.1959124  20.6040764  97.8240681  75.6385565
  19.1288614  97.7256584  75.9626579  43.3875370 104.3539715  79.2211056
  43.5792875 105.0820446  78.6300278  44.1511345 103.7810516  79.1509867
   3.8831639  14.3517447  26.1508918   4.2607117  13.9222050  25.3833079
   4.0449029  13.7416637  26.8705249  17.5175774  91.1592197  84.7559834
  16.8168604  90.9147644  84.1514492  17.2546947  90.7784271  85.5939102
   2.3086995 102.4864197  80.5058765   2.8024468 102.6846981  79.7101879
   2.3173940 103.3042431  81.0031986  65.1705122  12.7415287  80.1921272
  64.9350309  13.5031176  79.6622610  64.4510746  12.6529825  80.8172703
  70.5512142  58.0283737   8.4804714  71.3423538  57.5931215   8.1628484
  70.3145552  58.6361790   7.7798998   3.0489099  18.1557798   4.9612117
   3.0824870  19.1082597   4.8724005   3.8241836  17.8442061   4.4941962
  61.7457628  10.0510919  88.1856537  62.1678495   9.2302537  88.4392262
  61.7516994  10.0377846  87.2285652  92.0715116 105.4448635  25.7883525
  92.6678846 104.9060486  25.2684975  91.9711457 106.2497032  25.2800298
  58.7532139  76.7406273  67.6704693  57.8782749  76.5916634  68.0289745
  58.9976454  75.9020090  67.2790527  40.5932045   0.9181018  50.6453753
  41.4498091   1.1710338  50.9895897  40.7558250   0.7143427  49.7243595
  35.0661135  92.1441936  76.0493755  34.6642971  91.9841099  76.9032764
  35.1491547  91.2750530  75.6570292   0.0529980  86.3391590  83.9642715
   0.6155775  86.6575146  83.2583141  -0.4890207  87.0929909  84.1970348
 106.1612511  35.5148292   2.0128758 105.6735420  36.2261653   1.5976992
 106.4295769  35.8708787   2.8599072  32.4669123  57.1999025  91.6518784
  32.7850342  57.7380991  90.9270477  32.3330474  56.3340044  91.2664795
 111.4960289  72.9402590   8.8299894 110.8459187  73.4930372   8.3963680
 112.2911263  73.4729958   8.8457805  24.2487955  42.1398640   5.3995681
  24.3083906  41.2112570   5.6239963  23.9871764  42.5670862   6.2152082
  54.6484327  22.1684170  67.6696014  55.0509071  21.8216562  68.4658432
  54.8170900  21.5001297  67.0053864  12.6002133  65.3605843  79.6667099
  13.1934714  65.4387712  78.9196062  11.7340887  65.2506828  79.2743015
  71.5297461  50.6634903  13.5795510  71.4582253  51.5019894  13.1234419
  70.6681013  50.5317211  13.9750695  13.8632131  14.6003735   2.9734334
  13.9499342  15.4515672   2.5442711  13.0869067  14.6889102   3.5263720
  17.9144681  80.5467606  55.7369089  18.3690822  80.3543758  54.9168205
  16.9857466  80.5287266  55.5058622   7.9767984  21.2346411   7.2180039
   7.4705052  21.1057663   6.4159501   7.7187586  22.1029997   7.5272018
  51.9538546 102.2646427  75.3147936  51.3576889 102.1272945  76.0509682
  51.8480158 103.1890678  75.0901318 101.9454765   3.6993483  70.7593250
 102.4697018   4.2357624  71.3540363 102.0739937   4.0997097  69.8994255
  83.7642670   1.2655617  69.5142317  82.9606628   1.5430439  69.0743923
  84.3901825   1.1256944  68.8036680  20.9400392  96.0385227  74.4564056
  20.3895593  95.4019451  74.9124479  21.1918354  95.5990601  73.6441851
 109.2764664  80.5981636  70.1462555 108.7089920  81.0527897  70.7687664
 108.7501335  80.5273342  69.3498945 107.3337078  39.1571498   3.5343021
 106.7073917  39.8808622   3.5202783 108.0850792  39.4809866   3.0375001
  15.7328522  43.7391806   5.3445816  14.8471153  43.8480377   4.9983841
  16.2069082  44.5117140   5.0368559  60.4086018  90.7880688  42.3780918
  59.5600557  90.8058643  41.9355011  61.0082674  91.2108994  41.7633963
  10.3586411  33.3364224  10.0200844   9.5292038  33.1062317  10.4387462
  10.6461048  32.5272942   9.5971119  87.1865559  67.4648952  66.7655993
  86.2869358  67.7332783  66.5788364  87.4769497  67.0272017  65.9653950
  89.2643642  40.5065393   2.0326906  90.0166798  41.0074854   2.3478226
  88.7778091  41.1234903   1.4860049  31.2984037  52.3630285  71.9755268
  30.7298350  52.0839643  71.2578297  30.7255888  52.8685808  72.5521851
  18.1365466  42.4022961  79.6120024  18.7292027  43.0674362  79.9621201
  18.6910832  41.6335058  79.4790268  41.6928434  81.6404533  71.7867088
  42.3139906  82.1577454  72.2993708  41.7075968  82.0410156  70.9174728
  77.8408813  27.9102278  77.4248362  77.1662474  28.5882187  77.3870707
  77.9217672  27.7044344  78.3561420  67.9272127   3.5466808  48.6202955
  67.8377628   4.4995102  48.6016941  67.2428846   3.2303086  48.0305243
  40.6770992  77.8691912  40.0319147  40.2412176  77.2712278  40.6391096
  41.2706614  78.3794117  40.5829048  46.1554861  78.7955093  86.0903168
  45.5419588  78.1437588  85.7511425  45.6456280  79.2955351  86.7276955
  44.8731232   6.3615978  51.8564177  44.0936470   6.7465192  52.2570276
  44.6390390   6.2510538  50.9348869  83.2209873   9.4611424   0.6871522
  82.7759361   8.9820826  -0.0118926  83.1060600   8.9133775   1.4636686
 102.1133232  39.9948788  12.4807978 102.5993633  40.6075287  13.0327618
 101.4452553  39.6286178  13.0602479  45.4608345  78.8571978  66.7580318
  44.9508095  79.5346498  67.2020626  45.9872437  78.4602499  67.4519730
  34.1153574  90.6658649  65.9654617  34.1577387  89.7125340  66.0403061
  34.2466450  90.9823513  66.8592358  61.5055635  88.9731820  91.3039949
  61.4240625  88.4802993  92.1204847  61.4504674  88.3091052  90.6168291
   1.7392741  35.0772047   2.3080672   2.0927887  34.7860646   3.1486011
   2.4719615  35.5209208   1.8808469  83.2734108  49.7988129   2.9055628
  83.4413147  49.6675491   1.9723916  82.3396683  50.0036716   2.9544136
  73.5966015  97.3123932  81.4106083  73.6849976  96.9852066  82.3058033
  73.7452030  96.5442848  80.8590984  32.8050780  70.4973841  37.8251910
  32.0855856  69.9882078  38.1984210  32.8951979  70.1655102  36.9318986
  92.4913216  50.2613974  22.4200916  92.6899815  49.3337488  22.5475121
  91.5788269  50.3508854  22.6950169  79.6199322   4.6075657  33.7736225
  79.6219969   3.7629277  34.2239738  80.5163956   4.7109935  33.4544206
 108.9376259  32.7553582  31.4675522 108.3472824  32.4146128  30.7955265
 108.9624596  33.6989164  31.3084531  87.5351715   8.1022584  10.0361001
  88.0051708   8.5749167  10.7230675  87.6865673   8.6179084   9.2440051
  13.9947927  78.9299011  12.4355495  14.0214825  78.1224298  12.9488814
  13.8387549  78.6377430  11.5374804  12.2750854  75.1814747  80.6179428
  13.0463564  74.6151304  80.5929089  11.8907690  75.1014996  79.7449398
  20.6451511  88.4782791  54.7769451  21.0844493  87.8274822  55.3243971
  21.2100863  89.2496872  54.8218727  39.8051167  81.5488815  75.8156490
  40.4363060  80.8440018  75.6708050  40.3438807  82.3229027  75.9795380
  47.3655653  13.9202106  16.8713343  47.2010326  13.5768807  15.9931064
  47.5587225  14.8475552  16.7336643  38.2505846  84.1756248  60.1985455
  37.7258921  84.4013691  60.9666395  37.6530504  83.6817837  59.6370268
  34.3928242  99.5861149  78.8166952  33.7666106  99.9912739  78.2167530
  33.8495374  99.1854191  79.4953060   2.8824726  36.3765645   7.1714652
   2.7850291  37.2485447   6.7888570   2.5232461  36.4610362   8.0546713
  22.9420352  81.8057632  70.6348944  23.6644316  82.0774555  70.0687075
  22.2594547  81.5157509  70.0297451  98.6648750  21.7360616  40.4126453
  99.2257977  21.3086510  41.0598850  97.7962303  21.7413521  40.8147240
  89.3329334   3.7652862  63.7964773  89.6276283   3.1340885  63.1399918
  90.1190281   4.2640471  64.0190268  19.4696975  92.0884037  76.9657660
  20.3601122  91.8197155  76.7395020  18.9384639  91.3060760  76.8174791
  32.2767448 102.3821068  50.7449055  31.5290260 102.2194099  51.3199568
  31.9039345 102.8384304  49.9905777  11.5257883  24.2623711  10.0972533
  11.2973142  23.5211658  10.6581867  10.7282817  24.7905231  10.0615966
  57.0636511  84.1335773  67.6085520  57.1885014  84.7096252  66.8543530
  57.8271961  83.5564041  67.5980949  25.2097154  69.2208338  41.9043016
  25.6571651  69.2163515  42.7504683  25.6694460  69.8873663  41.3937950
  34.3931866  73.8935757  72.9725456  35.2074122  74.1613245  72.5464249
  34.0846801  73.1504154  72.4541187  37.1290851 102.1986866  49.1741085
  36.3901401 101.8784809  49.6914673  37.5075030 101.4108276  48.7838364
  81.2918663  15.8661532  79.5292234  81.0162067  15.1962459  80.1548958
  81.5339661  15.3753126  78.7439203  24.5560050  80.3072548  77.9772472
  25.0047231  80.7888126  78.6722136  25.2615404  79.9731350  77.4233341
 104.0690136  33.4791422  18.4945190 103.7524891  32.5844097  18.6190069
 104.4883919  33.4673119  17.6341641  45.3272915  65.3057861  86.7512417
  45.6945419  66.1805058  86.6238785  45.1963377  65.2363682  87.6968956
   3.6668903  46.0978174   4.5342356   2.7401352  46.2975025   4.6664581
   4.0932283  46.9539595   4.4956040  22.6936889  84.9708557  67.4393082
  23.3020782  85.4654980  67.9883242  23.0973744  84.1073036  67.3524141
 110.9237480  99.5602798  72.4011087 111.3677979  98.9391232  72.9783487
 110.0234032  99.2391777  72.3510170  26.2397885  93.2463455  77.5961018
  25.4297423  93.7045479  77.8199530  26.4572430  92.7461433  78.3827019
  21.6382742  79.1081238  71.9662523  22.3066902  79.6026230  72.4405098
  22.0755553  78.8228703  71.1639738  48.8227749  94.5273113  64.8940611
  49.3934631  94.1900635  64.2035484  47.9667282  94.6162796  64.4751263
  14.9548399  72.9211664  74.1098118  15.4012561  72.2977686  74.6828032
  14.2474318  73.2767677  74.6477270  43.5424900  90.0163651  69.9521828
  43.1010771  90.5908012  70.5778074  43.8095999  89.2575550  70.4709196
  44.7954655  97.8985691  80.9874439  44.0485954  98.1956959  81.5071774
  44.6617317  98.2959747  80.1269627  14.4182098 104.1430092  75.1958990
  14.9151611 103.6973286  75.8819342  13.7617052 103.5027981  74.9213743
 107.9092884   5.6895590  36.6187978 107.3936558   6.3588679  37.0686650
 108.4620953   5.3127652  37.3033857  71.9268084   9.6610379  22.7104068
  71.4048529   9.4040126  23.4704947  71.3108730  10.1237381  22.1422815
  91.7556095  52.5791788   6.0457230  91.5428257  52.7064180   5.1211882
  92.3866749  53.2711411   6.2436861  87.4004459  39.4799399   4.5422962
  87.1837044  40.3131151   4.1238800  87.7492619  39.7257996   5.3991026
  11.1164606  91.7232609  54.0213728  11.3520515  90.8159065  54.2148590
  11.7640805  92.2451115  54.4951725  55.2854347  35.0192142   2.9776183
  55.2163172  35.9446287   2.7429712  55.7389975  35.0190806   3.8205382
  54.6013689   5.3295219  80.6280231  53.8878584   4.7824687  80.9564590
  55.0227308   4.7949722  79.9550152  65.7649803  83.4040260  38.6987972
  64.9927044  83.0865669  38.2307792  65.4125643  83.8382721  39.4756293
 111.8908119  24.8595667   7.1078974 111.7312336  25.6361008   6.5714663
 112.7959442  24.6161699   6.9136757  86.1074257  95.3199768  88.7365150
  86.6473579  95.1019382  89.4962311  85.4612064  94.6152592  88.6917686
  11.9060016  51.0944319  66.4361238  11.3213181  50.8805990  65.7090378
  12.3381436  50.2668524  66.6473150  45.1156187  13.8689744  89.4799423
  45.2378654  14.0291762  90.4156876  45.6155872  13.0714393  89.3061638
  69.2327690   0.8684584  79.2396450  69.5585728   1.7013785  79.5807171
  68.5102224   0.6368806  79.8231983  75.7864761  69.9032593  91.3715172
  76.5994549  69.5197248  91.7004585  75.1454115  69.1951275  91.4332867
  21.0524154  88.6582947  85.1981163  20.1561165  88.4912395  84.9066162
  20.9539485  89.0276718  86.0756683   7.6339233  43.3593702  23.5253620
   7.9457128  43.6681604  22.6746750   8.3410895  42.8031778  23.8521576
  94.1005898  53.1069851   3.4325626  93.1702709  53.3320713   3.4409022
  94.5511246  53.9513016   3.4128821  61.9971037  24.7480083  86.0554790
  62.9025412  25.0126076  86.2179661  61.4760494  25.5110621  86.3054466
  64.2011166  63.9607859  85.5051708  64.2813635  63.0676746  85.8400536
  65.0376558  64.3733025  85.7202721  85.7777500   6.4576036   8.8595527
  86.2796974   6.0539055   8.1515205  86.4012051   7.0403653   9.2930621
  92.5670242  42.0499754  12.1115184  91.9600487  42.7569962  11.8925965
  93.1472111  42.4283600  12.7721596  40.0055933  99.6519661  76.5367079
  39.1079831  99.4078255  76.7623758  40.5510616  99.1268539  77.1223354
  12.7289402  96.4222336  77.2624588  13.0231762  96.0285187  76.4410877
  11.8542933  96.7584705  77.0670843  30.3032565 101.5530777  52.4895620
  29.9117422 102.0895100  53.1789017  30.6646109 100.7963467  52.9510880
 105.9471512  53.6458778   2.9781148 106.8244553  53.2694769   2.9082808
 105.5648136  53.5250950   2.1089399  20.6817198 104.6078205  75.6384802
  21.2898469 105.3158474  75.8508539  20.2200937 104.9145889  74.8580790
  49.9553967  97.4086666  70.9169865  50.2147436  96.5011597  70.7576370
  50.7822847  97.8871632  70.9764528 108.9039040  96.6518307  69.1355562
 109.0416050  96.0186386  68.4310389 108.6995697  97.4711037  68.6847019
  76.8345118  54.6265459   3.5581571  77.7269888  54.4583511   3.2557958
  76.7596674  55.5807924   3.5646623  14.4138753  60.6793451  91.3267803
  13.5623503  60.4994011  90.9283352  14.6179903  61.5759706  91.0610294
  30.4513097  76.2593460  79.0991545  29.8241282  76.4370871  79.8000717
  30.0817132  75.5105639  78.6312294   2.3852615  33.7410903  10.3036213
   1.7293453  34.2262340  10.8042610   2.4031927  34.1737080   9.4499516
  11.2840366  73.1112051  74.5011473  11.9470823  73.4579468  75.0981188
  11.4241624  72.1643734  74.5114279   2.5660193  46.8109560  34.5555949
   1.8505609  46.7287874  33.9250422   3.2559541  47.2699976  34.0765285
   5.2470922  29.5132303   9.4496781   4.5049226  28.9087772   9.4423485
   5.0862759  30.0808334  10.2034664 103.2028961  10.1771438  45.0725508
 103.1397057   9.2334467  45.2197742 102.7759933  10.3167975  44.2272806
 105.3235054  44.2608166  46.7779970 105.6066895  43.5871840  47.3962688
 105.6664848  45.0777674  47.1401930  15.3301227  93.8708687  69.0124750
  14.7938418  94.5985413  68.6976337  16.2319493  94.1640377  68.8821220
 106.9809723  31.8633103  14.5870125 107.4763584  31.1654091  15.0156891
 106.6254139  31.4546752  13.7978220  38.8371730  88.9485645  79.3186855
  39.7111034  88.8936329  78.9320850  38.6431837  88.0545044  79.6002102
  90.0729179  78.7445021  36.6659904  90.6956005  78.6065865  35.9522104
  89.3619633  78.1294346  36.4858150  12.5021219  60.5918312  45.4474974
  12.6572418  61.5360546  45.4227591  13.3474362  60.2166176  45.6942606
   5.1863569  48.4394264  61.9796991   5.4831964  49.3491936  62.0007324
   4.5221028  48.4200859  61.2907696  62.5537872  71.0195065  67.8946829
  62.7040815  70.9597874  68.8381243  62.9893398  70.2474833  67.5334263
  86.3206005  32.2468042  26.2281966  85.8164597  31.9558644  26.9880867
  86.6762447  31.4408159  25.8538532  19.7861445  76.1346292  55.6058216
  19.3913651  76.7719078  56.2010193  20.5065513  75.7528114  56.1072826
  79.5552254   9.9392951  84.0853500  79.3564892   9.3111897  83.3909321
  78.9911270   9.6780735  84.8132133  86.9765472  58.8989830   5.9860790
  86.9648838  58.2758665   6.7125958  86.0651493  59.1766882   5.8940721
  27.2457671  96.4145756  65.8981228  26.7015624  96.8061733  65.2149487
  26.6234541  96.1372757  66.5704823  78.8230896 100.6298065  13.1713009
  78.4312439 101.5007973  13.2349980  79.5191336 100.7272434  12.5214887
  40.4789591  53.5892153  57.9353809  41.2988520  53.3052397  57.5311947
  39.9417496  52.7976942  57.9689789  27.5990415  77.5553656  58.1033611
  27.5922632  77.1495914  58.9702702  27.8261042  78.4703779  58.2689714
 104.7733116  40.5166960  16.6705167 105.6643867  40.2997303  16.3963878
 104.3761349  39.6723723  16.8840504   2.6000735  15.6240833  33.7171054
   3.4575862  15.5141473  34.1279793   2.0260063  15.9008861  34.4312906
  21.3929892  93.8453960  49.0629768  21.9061899  93.1888771  48.5919714
  20.8101439  93.3354092  49.6255112   5.5654806  28.7392449   1.3755219
   5.4828453  29.6560764   1.6378619   4.8287773  28.5925460   0.7822432
 111.3581753  40.5633450   6.4626980 110.8753109  41.1878443   5.9213364
 110.8570385  39.7505760   6.3955832  24.7143745  63.1357241  81.9878197
  24.6120000  64.0531158  81.7345524  23.9016175  62.9215717  82.4458504
  92.4120426  29.8748446  15.0522673  91.9130802  29.0927291  15.2879798
  92.3627090  30.4332757  15.8281231  19.7637868   4.4273004  70.8948231
  19.4716442   4.6867365  71.7686558  18.9575028   4.2071965  70.4282475
  17.0087373  53.3595228  11.9216967  17.0276821  52.4185419  11.7472517
  17.4292409  53.7533379  11.1572909  70.0872374  21.7171216  86.1538982
  69.6217251  21.0900664  85.6004238  71.0009432  21.4338040  86.1206055
  58.1342077  80.9283066  82.3699379  58.6756611  80.6647015  83.1139660
  57.4780512  80.2355480  82.2938633  24.2754912  66.6202116  55.1193810
  25.1685405  66.7812109  54.8147917  24.2582798  65.6861544  55.3278828
  95.0071239  10.2525663   6.4413470  94.7805214  11.0025442   6.9912714
  95.7218838   9.8201728   6.9086665   6.4522457  15.2421057   5.9039468
   7.1417636  15.1412916   6.5601736   5.9718215  14.4146872   5.9322685
  21.5469956  37.3785496  84.0539742  21.6387653  37.3991060  83.1014061
  21.7016244  38.2822394  84.3290520 101.2928581  33.8075924   8.3146328
 101.6335678  34.6478152   8.6215109 100.6150436  33.5774827   8.9501262
  45.2886152 101.7124462  69.9257040  44.7734165 101.5753937  70.7207012
  45.4090405 102.6608849  69.8788691  16.8871999  67.1119022  75.9859276
  17.5363278  67.5681305  76.5213919  17.0094025  66.1865425  76.1980629
  32.6711392  80.9424305  90.2459240  33.0288982  81.8289757  90.2937508
  32.0849371  80.9611988  89.4894600  41.1446142  95.3910351  74.3956995
  41.3660765  96.1312008  73.8305950  40.7127762  95.7880116  75.1521111
  70.4631186  11.1196244  73.0375195  70.4716015  10.5825353  72.2452497
  70.5270815  10.4891992  73.7549496   0.9526616  78.2737541   3.4709516
   1.4527121  78.8655329   2.9088289   0.0389299  78.4350491   3.2357696
  67.1652317  16.0863042  71.4700174  66.2259388  16.1157382  71.2880993
  67.3689270  15.1527965  71.5274858  44.0577459  90.3461742  64.4231987
  44.4441605  91.1678123  64.1201496  44.1291761  90.3853226  65.3769255
  86.1699867  32.6775289   9.0786004  86.8493938  32.0032859   9.0837687
  86.6380501  33.4876585   8.8765121  39.3491149  78.7215853  89.9777412
  39.7697568  78.1533194  90.6230068  38.4148288  78.5325956  90.0650597
   0.1111342  32.8252244  13.0083072   0.2408705  33.7323022  13.2850862
   0.8869639  32.3641777  13.3273005  77.9547026  85.2365096  91.6692975
  78.8047555  85.3351863  92.0981348  77.9070237  84.3076833  91.4429261
  53.5802984  98.9640808  74.0538740  54.2241144  98.2625484  73.9559460
  53.8258266  99.4024754  74.8685884  67.3793697  89.0826797  29.5103884
  67.0727062  88.8226318  28.6417317  68.2667398  88.7282944  29.5671296
   5.7319415 101.0602760  64.9840021   5.8380604 100.1641369  64.6647644
   6.5905428 101.4634800  64.8557138  19.1356635  98.4949207  87.6135826
  19.4037998  97.6506519  87.9762650  19.9535871  98.9807320  87.5076580
 103.9797592   9.7275877  84.4142818 103.2988930  10.3861427  84.5519447
 104.7965527  10.1797712  84.6255112  64.4746923  94.7109127  77.1718788
  64.5445108  95.2011395  77.9910421  65.2773762  94.9241161  76.6959953
  20.0903535  92.1353912  83.6451340  19.4074178  92.7049923  83.2910347
  20.1316166  92.3602200  84.5746422  44.0334082  47.1136570  39.8216033
  44.4353008  46.8518162  40.6499434  43.1278038  47.3229074  40.0503588
  88.6222458  22.6241040   6.9164491  89.3448925  22.4953699   7.5308156
  88.9381313  23.2962489   6.3125700  96.4013672   3.9049864  25.4935551
  97.3264694   3.6679834  25.5586505  96.1723804   3.7279221  24.5811701
  44.8030949  93.6279869  84.1274834  45.2412319  93.3336926  83.3289433
  44.3509293  92.8497696  84.4532967 107.9271317  29.3680239  15.2344692
 108.4232998  28.5636783  15.0825453 107.5727940  29.2675996  16.1179793
  89.1360855   8.8972110  62.0483875  89.2457008   9.4094747  61.2472630
  89.8114014   8.2209814  61.9945621  54.7658443  94.7404671  72.8714228
  55.2784443  94.6906757  72.0645809  54.8095655  93.8572598  73.2378435
  32.2114253  89.4473171  76.4950085  32.7782273  89.2594433  75.7468939
  32.7654696  89.2926121  77.2600794  49.7413731  90.5379486  87.3048782
  50.1414108  90.3040028  88.1424141  49.0711927  89.8690891  87.1644211
  21.7002177  81.6778278  75.6529093  21.8694377  81.2106609  76.4710474
  21.2982368  82.5022888  75.9266090  24.6564388  97.8685856  42.9688311
  25.3963542  97.7618790  43.5666323  23.8845634  97.7113152  43.5126209
  47.8458214  16.7524695  88.0242348  47.1383667  17.3103261  88.3475494
  48.3786821  17.3325026  87.4803066  36.6881537  89.0840435  87.5335217
  36.8796515  89.8402786  86.9788361  36.1474252  89.4363308  88.2404423
  56.2433257  97.3160250  91.1757037  55.6724825  96.9057543  90.5260524
  56.2088445  98.2500155  90.9690603  75.0245953  70.7884169  88.9752197
  74.0845537  70.6143236  89.0225887  75.3440142  70.6218576  89.8620510
  47.2254610  99.6143532  83.2859898  46.5677071  99.6361160  83.9810562
  47.8568125 100.2902889  83.5324478 102.3237038   1.2210156  66.1988449
 102.9845715   1.0926806  66.8793058 101.4880657   1.1537465  66.6608143
  26.1987114  76.1394167  76.8670511  25.5628252  76.6600227  76.3762903
  26.8788695  76.7650127  77.1165562  33.8387609  61.2741661  87.6193810
  34.3467736  62.0708275  87.7726269  34.3409324  60.5831003  88.0512142
  65.6803513   5.3329736  75.6087732  64.8265743   5.3901201  75.1797771
  66.3123465   5.3763467  74.8911858  78.8248253  73.6230564  90.8645248
  77.9008579  73.4466314  91.0417080  79.2779064  73.3513165  91.6627121
  98.1589890  12.6248491   8.4006405  97.6119709  13.4091508   8.3573639
  99.0021324  12.9386318   8.7275821  85.2925014  21.2430763  74.7190428
  84.9471378  20.4935122  74.2341661  84.5996952  21.4659524  75.3407955
  62.3463821   7.7795988  76.3606358  63.0042219   8.2573992  75.8554792
  61.5405321   8.2819259  76.2401772  93.8073826  20.9568548  80.7742882
  93.5481739  21.8655157  80.9272099  93.3980179  20.7282090  79.9397993
  25.7015419  87.5568008  77.8471804  25.9160209  87.5758266  76.9145155
  25.6663752  86.6255856  78.0659056  93.0925751  35.7253861  25.3724957
  92.4980450  36.3437152  24.9477196  93.9535522  35.9330440  25.0094271
  64.8983383   5.8114874  50.2337694  64.7073460   6.7488551  50.2668905
  64.1070080   5.4186934  49.8653316  24.3815923  72.1952868  79.5414925
  24.6193671  73.0986118  79.3324566  24.1075587  72.2257423  80.4581261
 104.0023327  62.5070333  15.4329240 104.0343475  61.5505838  15.4531229
 103.0851173  62.7196741  15.6053662  70.1898336  60.8727264   9.3676096
  69.8820782  60.5248976   8.5306329  71.0887718  60.5528450   9.4439203
  60.1234674   3.1263208  76.8346214  61.0453558   3.3639768  76.9339752
  59.8686600   3.5023052  75.9920359  96.9734573  10.5683959  88.6354923
  96.7633820  11.4816356  88.8306713  97.0200348  10.1448822  89.4926453
  45.3583336 104.9853992  54.9582958  44.6261787 105.5690670  54.7595215
  45.8466673 104.9255371  54.1372108  52.5302172  88.8528728  81.9762039
  53.1069279  89.1449547  82.6821232  52.9427338  88.0554008  81.6443920
 108.4752560  18.3702075  37.7383518 108.8368702  17.4845362  37.7708244
 108.2017326  18.5503650  38.6377740  49.4994640  77.7586317  80.5054665
  48.8645697  78.0807877  81.1452770  50.1461077  77.2840166  81.0277939
  13.8904750  46.7804909   7.1738380  13.0915213  46.5355396   7.6406407
  13.6943197  46.6031027   6.2538987  19.5719862  33.7232757   1.0632455
  20.3286982  34.1187644   1.4959177  18.8235605  34.2289257   1.3801210
  79.9085474   7.6890349  48.2631016  79.9911404   7.9576570  49.1781139
  80.7540703   7.2928286  48.0525351  92.1336269  29.8168254   9.9990714
  91.5219784  29.1317081   9.7293860  91.5741444  30.5492878  10.2573347
  88.1228447  35.6682396  64.3355751  87.6282787  34.8507285  64.3932152
  88.2304764  35.8173323  63.3962059  18.1006706  29.9330235  14.3956351
  18.5762799  29.4113612  15.0420833  17.7108157  29.2870831  13.8065624
 105.0744343  11.4488530  69.1412640 105.2737236  10.8643413  68.4099245
 104.1181946  11.4657319  69.1806793 103.1911087  98.4897804  83.1332493
 102.8779793  97.9154205  83.8320160 103.8001156  97.9473114  82.6321697
  89.5768929  32.7908826  15.7586551  89.3537617  31.8961716  16.0154390
  90.4490662  32.9349804  16.1257708  99.3615627  11.3324511  38.1446147
  98.4581470  11.0246408  38.2175732  99.6877670  10.9291816  37.3401284
  27.5657988  59.3914270   8.0821431  26.9368863  58.7578917   8.4275943
  27.7659750  59.0743589   7.2014433  92.9455280  10.8983159   4.3462366
  93.6047649  10.5450034   4.9435750  93.4282303  11.5123606   3.7929043
  32.7088785  37.2853780  15.0536454  32.7141833  36.3564634  14.8227286
  33.4906983  37.6415610  14.6316028   3.6231485  16.1939800  15.1845276
   4.5421714  15.9761906  15.3400826   3.1416661  15.4161561  15.4663014
  34.5294309  67.2354555  14.4010317  34.5973873  68.1838512  14.5112991
  33.5934711  67.0515060  14.4808590   2.1591885  60.7856655  18.3561385
   2.3564427  61.6736412  18.0581045   3.0125701  60.3551674  18.4075546
  96.1075497  73.3630991   2.2675878  95.2716923  73.8141632   2.1487904
  96.6611958  73.9998245   2.7195728  35.6881118  81.7777729  60.9480715
  36.0471678  81.7685604  60.0608158  35.5315828  82.7037048  61.1335039
  57.2569036  87.7291393  75.3311396  56.4294386  87.5178528  75.7634497
  57.0002842  88.2130241  74.5461369   6.1738569  76.2067366   7.0373613
   6.5201366  76.7520857   7.7437025   5.7024139  75.5047464   7.4858963
   1.0267055 104.8020172  62.9529190   1.4304745 105.1412296  62.1540880
   0.2693772 105.3691578  63.0979586 103.4980297  72.8536987  21.0424852
 103.2277775  71.9580221  21.2448812 102.6793957  73.3160686  20.8628130
   5.0443572  18.1700134  31.8424535   5.3531039  17.2642016  31.8627357
   4.7758797  18.3517671  32.7430749  43.8616228 104.5821571  75.0200653
  43.6686945 105.0288582  75.8443689  44.6748257 104.9840832  74.7144651
  50.4861498  45.0126839   2.3532701  50.0476789  45.8586788   2.4441904
  51.2941742  45.2113342   1.8801180 108.0775452  41.6056442  12.7615535
 107.2299576  42.0240450  12.6106608 107.9693317  40.7166290  12.4236453
  61.6845417  21.9085050  81.2970161  61.4991283  22.7445173  80.8693027
  61.8871593  22.1426010  82.2027588 108.1484222  34.9886203  17.0790982
 108.2127857  35.2597594  16.1633611 108.9308739  34.4575119  17.2271907
  29.3771505 103.8525009  77.4820280  29.1836858 104.5937538  78.0559111
  30.2694941 104.0135098  77.1753883  41.9553185  96.4544964  62.4782181
  41.5082788  96.0951805  61.7118692  41.2663078  96.5461826  63.1363153
  90.3905773  29.3523741  21.5194178  90.3145313  28.7347341  22.2467208
  89.5086288  29.7095299  21.4152861  33.5545349  89.1920280  79.3658781
  34.4394207  89.1788101  79.0011358  33.6574459  88.8561153  80.2562714
  34.0153575 103.8656521  80.4462337  34.4619870 103.6310673  79.6327686
  33.2194948 104.3148708  80.1615524  63.6720562 101.3035393  72.3897600
  63.8133192 101.2061882  73.3314610  64.1899252 102.0713902  72.1479988
  50.7830048 104.4923973  19.4264948  50.2940416 105.3093433  19.5251846
  51.5416241 104.7302151  18.8934159  15.0935650  59.4411993   6.2849611
  14.9157965  59.3011236   5.3549027  14.2355120  59.6235609   6.6680038
   5.7577020  80.9763527  11.5833020   5.6356996  80.8464432  12.5237656
   5.3053236  81.7984867  11.3944066  51.4822292  91.2777805  83.2532978
  51.2214279  91.1954403  84.1705990  51.1276436  90.4946899  82.8322601
  78.0133724  68.7995291  77.0718813  77.6902485  68.0778360  76.5324497
  77.2414780  69.3420219  77.2334623  54.4874001  83.1745815  87.0367241
  55.1925898  83.4682274  87.6135349  54.9367142  82.7476788  86.3072681
  22.3911238 102.6409626  82.8853226  22.0678306 103.4591961  83.2624340
  23.2763267 102.5482082  83.2375240  85.9782696  32.0995307  89.5522404
  85.5597687  31.4001608  90.0542068  85.6897926  31.9533467  88.6513329
  93.2026386  73.5237646  85.0336456  93.3912468  73.5678625  85.9710503
  93.9698601  73.0946207  84.6549034  21.5392303  28.4640694   2.6582989
  21.6518188  28.8810539   1.8040866  22.3940802  28.5485315   3.0805904
  81.6736889   3.1188485  77.1840239  81.8572807   3.3828780  76.2824631
  80.7942772   3.4546453  77.3575783  96.5529537  23.7800884  79.5869923
  96.2859631  23.7119603  78.6703062  96.1688328  24.6036243  79.8877621
 106.0257244   4.8360023  69.0390444 105.1988697   4.8991328  68.5609674
 106.0463619   5.6208861  69.5865536  39.6694994  81.9828987  47.2826815
  39.6151638  82.9269981  47.1345425  40.4098558  81.8763924  47.8799820
  99.1367435  71.8918371  20.2331996  98.6905670  71.0545015  20.3597689
  98.6390877  72.3260927  19.5403850  61.0392046   9.4615811  66.8175125
  61.8335772   8.9813602  66.5838623  60.7626629   9.8785692  66.0014963
  52.7878237  92.1459484  37.9920483  52.9295826  92.1490860  37.0454097
  53.1746531  92.9674625  38.2948852  80.1951694  78.4910202  87.2281933
  79.6273279  78.5898590  87.9924107  80.2422237  77.5456953  87.0854187
  11.6405749  65.0809479  86.8168354  11.5528655  64.1333485  86.7138958
  11.4139271  65.2444220  87.7323341   9.0373695  40.1381779  10.6585109
   8.1863761  40.1076889  11.0956740   9.4602221  40.9208727  11.0118079
 105.3768826  68.1817770  18.3518386 105.9090519  67.6965523  17.7212954
 104.4737530  67.9669046  18.1185567  67.2048283  35.1491332  76.7575550
  67.4769258  35.9436440  76.2982655  66.3244200  34.9709320  76.4268684
  50.0175183 105.7985243  82.4613190  50.1139061 106.6917701  82.1310806
  49.1416352 105.5328218  82.1812057  52.8505898  81.2237263  84.1695404
  53.1133223  80.5963707  84.8430538  52.9838514  80.7584190  83.3437347
  97.3943806  27.5728559  51.4865732  97.5755692  28.3393312  52.0305586
  96.7198467  27.0924830  51.9666529  43.2397079  95.4661179  55.5963898
  42.5430202  95.5316925  54.9432802  43.0860376  94.6251202  56.0269022
  61.4352560  15.5549669  87.7763271  61.5446424  16.4158189  88.1803036
  62.1976423  15.4596865  87.2054291  12.8543484  38.2491803  58.8627005
  12.7920818  37.3810577  58.4643078  12.1977031  38.7716866  58.4022284
  50.6738138  20.9310436  87.4481010  50.9664583  21.7690086  87.0897675
  49.7308874  21.0396719  87.5718594  29.0608215  96.0205269  82.3745728
  28.7570000  96.7567825  81.8436718  30.0103712  96.1328983  82.4188328
 109.2431450  48.2889938   0.3348333 108.5671616  48.4894848   0.9821965
 109.7795868  47.6136398   0.7499997 107.6686001  72.0640898  19.3166447
 107.8074551  72.0194387  18.3706236 106.8103027  71.6625309  19.4519532
  86.5887547  25.4645920  82.1546745  87.3496532  24.9300122  81.9277859
  86.6965961  26.2650061  81.6409206 102.0007801  30.4352283   5.9512788
 102.4322605  29.5917511   5.8148789 101.6539192  30.6688333   5.0902635
  73.4367752  99.4708729  28.1147504  73.5917473  99.7599316  29.0140080
  72.9752588  98.6373997  28.2072449   4.0269020  24.1794252  40.6984758
   3.7489182  25.0465703  40.9934568   3.2958019  23.6040735  40.9236336
  91.0639381  27.2619724  79.3967676  91.0277081  26.5045667  78.8125992
  90.2128601  27.6870441  79.2908764  58.4333229   9.9626780  67.7174664
  58.0225277   9.0998119  67.7717113  59.2588234   9.8065346  67.2587681
  79.9755955  86.2458038   9.7344387  79.7568655  86.5955639   8.8706923
  79.6658278  85.3403950   9.7116804  10.9390867  50.0919771  39.9210858
  11.6510320  50.7135677  40.0727224  11.0297990  49.8436785  39.0011120
  98.7386894  62.2626877  10.7327640  99.6401024  61.9875526  10.9000933
  98.2025623  61.6308737  11.2119317   4.6886554  19.5021999  79.5896387
   4.0706986  19.6635151  80.3026199   4.2018628  18.9601254  78.9688158
  84.5704079  11.5848434  64.2782831  84.9332905  10.8413351  64.7596884
  84.2158318  11.2009060  63.4763527   1.2347117  98.3632374   4.0439534
   1.9770089  97.8234386   4.3157062   0.4739213  97.7904606   4.1407061
  64.6784544  15.1012182  78.3781338  64.3450022  15.5118239  77.5803614
  63.9795065  15.2234912  79.0205908  78.1480742  12.2370994  79.3415070
  78.5191727  12.7564383  78.6282015  77.3554611  11.8506253  78.9691782
  56.4309072  12.1530950  43.6835670  57.1208715  12.1258581  44.3464661
  55.6159115  12.1298158  44.1850424  84.1075993   7.3866367  68.2922983
  83.3723164   6.7813331  68.3882284  84.4496918   7.4905604  69.1802216
   3.5256672  46.4039898  24.8301864   2.9564115  46.4545012  24.0623140
   4.4122362  46.3814592  24.4700193  54.7211170  79.4220877  71.1457586
  53.9461660  79.9429083  71.3565254  54.8276138  79.5231342  70.1998854
   0.7133092  71.8882714   0.4624733   1.6193141  71.7801188   0.1731857
   0.5943336  71.2162183   1.1336121  53.6588430  96.2251377  40.2895164
  53.5728550  95.3072548  40.5470610  52.7758646  96.5832520  40.3808212
 109.5450211   9.7500348  81.1408997 109.5420074  10.6281745  80.7599831
 109.0499496   9.2172986  80.5185413  38.6775422   1.2376069  52.8038692
  39.2027164   1.1779749  52.0058298  39.3073249   1.1172684  53.5145903
  13.0823004  43.7890005   1.5330382  13.6061883  44.1173458   2.2637662
  13.6036229  43.0748129   1.1664516  74.7465356   0.4199666  88.8638210
  73.9299877   0.4327935  89.3631363  74.5051129   0.0387353  88.0196571
  98.5168171  21.4880443  86.2949657  98.1841946  21.6294169  85.4086304
  99.2859364  22.0546556  86.3553715   8.6401230  99.2232704  48.2257509
   8.5692525  98.4047890  47.7345228   9.1098350  98.9833069  49.0245152
  62.5659037   1.2423030  64.3591261  63.3425617   0.8931108  64.7962761
  61.8323898   0.9322699  64.8902225  72.3034382   6.8609238  56.3591862
  72.4389172   6.0157901  56.7877007  72.8965902   7.4582845  56.8147755
  63.7062025   2.2745472  55.9441757  64.1720200   2.5076818  56.7472315
  63.8420486   3.0226591  55.3627062  68.1242657  28.9397526  86.5198994
  68.9203739  28.5746408  86.9060707  68.1203842  28.6091089  85.6216240
  76.5187120   5.1338303  65.8306122  77.1925926   5.0990289  66.5095139
  76.3666582   6.0686207  65.6917667  71.4408445  32.2438812  78.3979273
  70.6129599  32.5123382  77.9994631  71.2898350  32.3223138  79.3398809
  99.5967102  52.2979307   9.7660589 100.0390911  52.8359938   9.1095412
  99.5398617  52.8607464  10.5382240   2.0486757  82.2900105  89.5713043
   2.5547230  82.8367901  88.9703178   1.2862229  82.8233242  89.7959709
  97.2660446  55.8927011  27.7269912  97.5853634  55.3723574  26.9897580
  97.3577499  55.3155136  28.4850669 101.6756821  12.2683406  39.6191645
 101.0441971  12.1733975  38.9061093 101.3307190  11.7149496  40.3198719
  68.1167698 101.4764023  88.6032677  67.8296089 101.4725590  89.5163631
  68.6237812 100.6700897  88.5082340 109.3771648  57.1464729  12.0839059
 109.9464417  57.9109907  11.9963408 109.8808479  56.4277792  11.7017829
   9.2969978  62.9693747   8.1501955   9.9098712  63.5304499   8.6253917
   8.7098318  63.5798025   7.7042764 106.7339475  73.7978433  -0.0188843
 107.6788671  73.6461518  -0.0377289 106.6440447  74.7187112   0.2263722
  99.7733727  44.4485204   0.9773525  99.4452086  45.3310983   0.8053383
 100.3243962  44.2462747   0.2212414  29.6881366  41.2125397  18.3343112
  30.2802849  40.4676199  18.2309330  29.8973274  41.5666437  19.1986489
  22.3625517   4.9375275   3.4742501  21.8636274   4.1286138   3.5881045
  22.8345990   4.8138905   2.6507705  94.9834347  91.4301586   7.9995686
  94.5011616  92.2559643   7.9584754  94.4174290  90.7998276   7.5539708
  10.6398618  11.0066354  34.9561262  10.3506768  11.4340436  34.1499472
  10.5071902  11.6656923  35.6375051  86.6013813  13.7084556  77.8828096
  86.7334652  13.2397783  78.7069035  85.7246971  13.4502292  77.5982714
  72.2987938  98.2007599  64.6472073  73.0496359  98.4366417  64.1023874
  72.6533556  97.5877857  65.2912521 106.1742973  97.7258968  48.3855677
 106.1232090  98.5772610  47.9510546 106.8256950  97.2383690  47.8813648
  12.0905387  21.7551708   6.4939189  12.7521574  21.7568326   7.1856481
  11.8470049  22.6753783   6.3932121  57.0116568  33.3653140  91.2462997
  56.7362547  34.2801118  91.1868954  56.3499546  32.8832841  90.7502842
  12.9732347  54.3812895   9.3326509  12.7951980  55.2042723   8.8774192
  12.1073639  54.0161657   9.5148176  48.9541578  97.4086952  56.9679832
  49.8451376  97.0721054  57.0633316  48.4036016  96.7542553  57.3979044
  44.2148542  77.2447681  84.9422359  44.1036272  78.0783033  84.4849777
  43.3261061  76.9012308  85.0335693  51.3105345 103.7461185  53.8249016
  50.3901052 103.9972973  53.7477541  51.7046356 104.0235233  52.9978848
  97.4471188  44.6127176  14.7322357  98.2988071  44.7247791  14.3099833
  96.8228245  45.0003242  14.1188407  30.6662440  86.7474079  78.5977173
  30.2543640  87.5356102  78.9517117  31.1441398  86.3737297  79.3381357
  75.4895401   9.1681999  87.2128391  75.5268908  10.0950229  87.4491405
  76.3959265   8.8675678  87.2785187 103.6876869  54.0079069  37.2161484
 103.4912777  53.3306122  37.8633928 104.3187141  53.5980272  36.6245127
  64.5810890  72.2716522  75.7415485  63.6987114  72.0528364  76.0411501
  64.4465780  72.9347563  75.0644732  86.4496517  74.1248083  56.7436504
  85.6541061  74.5420408  56.4131165  86.6671181  74.6170712  57.5352430
 105.8975697  46.7068863  13.0267668 106.0379314  46.2512732  12.1967399
 105.1763248  46.2331629  13.4410405  28.6952853  31.7999578  10.6220222
  29.2656350  31.0313153  10.6109929  29.2891026  32.5367880  10.7658625
  88.2505703  10.2890730  65.2588606  87.8554630  11.1558127  65.1646233
  88.5832500  10.2737820  66.1562586  53.5849667  28.5813427  61.3697052
  52.9786444  28.4306264  60.6445169  53.0218363  28.6659098  62.1390963
  32.4149156  72.0846605  74.5335007  33.0543447  72.1698809  75.2406788
  31.6547465  72.5810051  74.8368359  68.8836050  70.1246929  61.5148830
  69.2041922  70.5114269  60.7000828  69.3703556  70.5782652  62.2030497
  32.4333191  89.7381306  67.9834223  32.8670764  90.4264069  68.4877634
  31.6028953  89.5955563  68.4376287  90.0851917   1.5318027  85.7455063
  89.4456673   0.9097628  86.0923386  89.6041489   2.0240065  85.0802517
  12.0826425  61.5633188   0.6783661  11.2931528  61.5971498   0.1381954
  12.7141466  62.1128837   0.2142414  76.1271191  25.0622511  76.2617826
  76.7919445  25.5069637  76.7875862  75.4346085  25.7136130  76.1504602
 106.7292404  56.4519024  12.1884048 106.3443184  56.7032576  11.3488257
 107.6221943  56.7950153  12.1548069 108.1045437  68.0667019  26.4528894
 108.6139202  68.5525513  25.8042645 107.4213314  67.6309443  25.9434032
  51.3528728  64.7436285  18.5397601  52.1231079  65.2890444  18.6993992
  50.8224916  64.8408031  19.3306375  12.5438893  56.9886160   2.6056877
  12.7773130  56.4709759   3.3762687  11.5943408  56.8931580   2.5316855
 104.0827465   9.3693852  40.6229162 104.2150307   9.8156655  39.7865176
 103.7362576   8.5097969  40.3835630   2.7349582  62.8433800  15.8288610
   3.3252132  62.0898581  15.8232844   3.3146593  63.6011553  15.9060359
  13.3998156  59.1616821  38.5356879  14.1045451  59.4219160  39.1288710
  13.2328701  59.9410391  38.0056238 104.9938774  33.2737708  11.8735230
 105.2965832  32.7837896  12.6380646 104.0396118  33.2079887  11.9093180
  60.4395151  97.8279686  50.8890152  59.4916058  97.9291058  50.8026171
  60.8052254  98.5376453  50.3609562  79.7877169   9.9924994  66.2361717
  79.6012163   9.1060638  65.9268522  79.9897861   9.8843181  67.1655273
  54.0754366 101.2179661  84.9783802  53.7949848 101.4584351  85.8614159
  55.0282764 101.3072968  84.9970436  40.6457472  88.1452751  56.4123869
  41.4178562  88.3402538  55.8812952  40.9982395  87.7642822  57.2166491
  71.5080976   2.8604871  67.3977470  72.0552969   2.4861380  66.7073393
  72.0935535   2.9397333  68.1508684  18.2073915  15.1827359   3.7257817
  18.2911015  16.0289514   4.1652620  17.9783142  14.5710695   4.4255102
  78.6458206   0.9196278  68.9367342  78.8549614   1.7221974  68.4588480
  77.7454376   0.7172649  68.6825848  58.2585621   4.0588599  78.6543608
  58.9082956   3.7490681  78.0234051  58.5561943   4.9367014  78.8931942
  42.1171474  79.0161276  67.9560375  42.1396732  79.7780848  67.3771191
  41.2145519  78.9827108  68.2729530  83.2545280  18.3347368  76.4185858
  83.0026913  19.1730678  76.0312700  83.6840153  18.5702288  77.2409678
  51.8943834  77.7241802  66.0376310  51.2207460  78.2400560  66.4807129
  52.4976635  77.4682808  66.7353439  50.2635813 105.3681087  62.1735573
  50.7416630 104.7733116  61.5957260  50.1069403 106.1467075  61.6392565
   2.2121656  57.7162838   8.5280144   1.4460251  57.4010038   8.0485809
   2.8106076  56.9693422   8.5410929  18.7876952  12.1770060  90.7015133
  19.3159223  12.6146817  91.3690853  18.9840603  11.2467730  90.8125877
  20.0411916  16.9731987  20.9837508  19.9850106  16.9277835  20.0292826
  19.5087969  16.2391210  21.2902141  14.9575090  36.5257645   3.1864673
  15.3496993  37.0325732   3.8974962  14.1634452  37.0088363   2.9576966
  38.7781096  92.0551682  73.7014771  39.1403246  92.7415943  73.1412601
  39.2006993  92.1903801  74.5496321  22.5309610 100.9280682  73.7785149
  23.0040216 101.7590046  73.8231230  23.2119656 100.2725601  73.6276007
  78.6482906  43.1457615  11.7829049  79.0822268  42.3337030  12.0446217
  78.1324387  43.3991289  12.5483680  41.2585926  98.0406380  86.0237312
  42.1822214  97.7929115  85.9815979  41.2041903  98.6361027  86.7711926
  37.0213509  89.9316692  81.4817905  36.6179323  89.3840408  80.8082962
  37.6733279  90.4500484  81.0101509  14.5304179   1.7159133  87.0243359
  13.7746847   2.2567788  87.2535992  15.2212679   2.3451965  86.8170643
  31.0193634  63.9265203   1.4176610  31.6770673  64.3520117   0.8675568
  30.1849389  64.2820501   1.1117743  19.2961347  86.5120220  87.1541214
  19.2417097  85.6487942  87.5641251  19.4735813  87.1109200  87.8794289
  58.0469799  25.1896358   4.1345069  57.3653269  24.5303488   4.0044272
  57.7143860  25.9690690   3.6894241  84.7773075  15.7144392  84.7558975
  84.0084267  15.7264137  85.3259087  84.7737789  16.5721154  84.3309116
   0.5874287  41.9165134   9.9794954   1.2559980  42.5137854   9.6440655
  -0.1266592  42.4891949  10.2594018  42.3867416  18.9463913  77.4111319
  41.9259644  18.4250975  76.7537355  42.0985460  19.8447514  77.2495031
  84.6528816  15.4273140  67.1213627  83.7052345  15.4882026  67.2417021
  84.9356747  14.7822297  67.7695370  73.6763144   9.6027714  81.5977764
  73.4082270  10.3621197  82.1152210  72.9268599   9.4230968  81.0300922
  92.6161861  -0.0322732  65.8006620  91.8285751  -0.2029703  65.2841711
  92.6110077   0.9147990  65.9394407  25.0555778  86.5394497   7.9381448
  24.2902017  86.1236095   8.3350134  25.6458306  85.8130550   7.7376777
 100.0815201  10.6871188  63.6879730 100.9870052  10.3777707  63.6629105
  99.5607090   9.8936933  63.8123131  36.8641734  10.8052528  66.2699318
  37.1472263   9.9549520  65.9336281  36.1478257  11.0654604  65.6908178
 103.0377960  11.4293098  72.9803896 103.5682774  10.7739544  72.5272560
 103.0549049  12.1923828  72.4027586  34.5363641  35.5225682  12.5079870
  33.6433339  35.3419375  12.2145557  34.7881150  34.7429633  13.0030310
 108.8782978  15.9786844  77.5683641 109.4960785  15.7895589  78.2746363
 108.3589172  15.1790929  77.4839449 108.7313652  11.0615432  51.0922766
 108.9624023  10.3358018  50.5124903 109.5397568  11.2558651  51.5665913
  36.5123367  85.5478191  81.2105656  36.4865184  86.0488033  82.0257759
  35.8817101  84.8402309  81.3442135  38.5757136  94.6053505  85.2467728
  37.9601932  94.2473221  84.6071053  39.2842078  94.9723530  84.7180271
  20.2760053  92.0923710  21.2215734  19.8328257  92.8452682  21.6126823
  20.1199269  91.3761997  21.8371820  79.8917818   0.9386602  55.1450920
  80.2573776   1.7997751  54.9424791  79.6258259   1.0011929  56.0624743
  40.4829264  67.8934526  82.1673107  39.8143721  67.2084951  82.1574688
  40.3146601  68.3808088  82.9737949  80.7084656  60.6569195   4.8530638
  81.1608219  59.8245573   4.7160330  79.8834944  60.4147482   5.2737850
  58.9523220 100.5098152  85.8551407  59.5639038 100.9677029  85.2784824
  58.0942154 100.8667660  85.6260777  88.2205200   7.6684284  64.6882010
  88.1890011   7.5313181  63.7413979  88.4376621   8.5952193  64.7889042
  71.9036865  59.1982746  84.7316742  71.7407608  58.4975576  85.3630829
  72.5315094  59.7734928  85.1689339  98.4965897   8.0887163  88.2392693
  98.1336594   8.2025856  89.1176414  97.8509235   8.4922600  87.6591778
  99.3399239  64.9567556   2.0339654  98.6565971  65.2961826   1.4559653
 100.1524734  65.0826645   1.5439251  82.8269768 104.4187546  91.0735035
  82.2784424 105.0845718  91.4882660  83.1703949 103.9029026  91.8030167
  69.6701384  98.5315514  64.3077946  70.0859022  98.9081001  65.0834084
  70.3963041  98.1754589  63.7958241  66.2290001   1.9531544  72.8478098
  65.6269264   2.0474102  72.1096659  67.0955753   1.8998842  72.4447632
  73.1334496  45.1066113   2.9991302  73.7934113  45.7950497   3.0812186
  73.2420540  44.7758007   2.1075016  85.0702667  38.2217813  70.7827187
  84.3261909  38.5859680  70.3031874  85.5106449  37.6564527  70.1481295
   1.8067448   0.5387503  65.5969477   2.5073001   0.5686561  66.2485313
   2.1183456  -0.0822865  64.9385786  42.1759892  39.0057921  57.5647688
  42.4723148  39.4278502  56.7583656  42.9187489  38.4689355  57.8410292
  21.7501569  47.7613449  53.6490011  21.7233539  46.8091393  53.7429190
  20.8749008  47.9963636  53.3409071  21.5264606  41.5779543   7.9336262
  22.3097372  42.1259117   7.8841656  21.8448472  40.6898546   7.7719349
  90.8636475   5.7981092  75.3458309  90.8214760   5.9056282  74.3956232
  89.9788952   5.5321854  75.5962801  49.2634106  94.4700718  73.0461597
  49.8723173  95.2021027  73.1441307  49.4956684  94.0762424  72.2052145
 107.9995060  14.0972161  71.8841934 107.9257107  14.4836223  72.7568197
 107.1523476  13.6770117  71.7359066  76.1472654  16.3269794  87.3262596
  76.9244385  16.1073232  86.8124676  76.4336300  16.2542427  88.2367229
  84.2819595  11.4714742  69.6007538  85.0682926  11.8107510  69.1731977
  83.7764740  11.0738671  68.8917923  83.2746315  22.0887733  85.1901150
  83.7936592  22.2250271  85.9827614  83.9228916  22.0038891  84.4909859
  98.0161762  12.6853824  49.7107458  98.8993073  12.3376322  49.5867395
  97.7978039  13.0895364  48.8709784  96.2984085   0.1112583  27.8964758
  97.2193718   0.3162983  28.0577707  95.8309555   0.5195234  28.6251974
  79.1649818  21.6982985  82.3761845  78.4521151  21.1054659  82.1382713
  79.3297243  22.2058392  81.5815163  43.1070280  59.1271687   4.6240965
  43.4291840  58.6720943   3.8460505  42.3361683  59.6059752   4.3195310
  72.9781342  85.6566525  67.4774694  73.2992411  86.2403584  66.7901468
  73.0558062  86.1688900  68.2823324  66.3926077  21.0998511  84.3544006
  65.7654953  20.6540775  84.9238300  66.1087799  20.8799767  83.4670830
  65.1706696  19.2915034  61.8026972  65.2354622  19.9182534  62.5232649
  65.7774067  19.6236682  61.1410522  58.6535358  84.5941830  42.2603416
  58.1614256  84.7528934  41.4548159  58.9676523  85.4592323  42.5234890
  82.8693008  87.2698593  73.5351944  82.6418781  86.4168262  73.1652641
  82.5650597  87.9020977  72.8840876 109.6848297   7.9936177  74.1190910
 109.2225742   8.0731821  73.2846928 110.6112957   7.9772383  73.8790369
  18.5511577  64.1930246   3.1284365  19.3985093  63.7985754   3.3349243
  18.4409308  64.0457201   2.1890840  31.9475412  94.1307926  83.7675476
  31.8442488  95.0719166  83.6266136  32.4868965  94.0643978  84.5555305
  71.0185385  23.6273026  74.8257875  70.1680660  23.4883904  75.2424765
  70.8616400  24.3229246  74.1872549  75.6299210   7.2432762  83.6789322
  75.6909466   8.1520855  83.3846951  74.6934557   7.0972741  83.8129234
  69.9332047  75.1779842  50.8827019  70.7359457  75.2278900  50.3637123
  69.4878578  76.0086060  50.7154846  69.7030973  25.9978175  68.7723732
  69.2622948  26.7150331  69.2279243  70.6187296  26.2723947  68.7228060
   3.0163562  95.0908947  53.3008480   3.1718194  95.3628063  54.2053509
   3.5515124  94.3048096  53.1917143  91.9320679  71.3530350  38.3413076
  91.1839771  71.0262728  38.8411260  91.6507530  71.3014317  37.4278355
 112.1093941  61.4134550  41.9192791 112.9033756  60.8965731  41.7826939
 112.3351479  62.0166731  42.6273727  77.7692080  19.1781330  79.9782848
  77.2485924  19.7317863  80.5602264  77.5341606  19.4691277  79.0972042
  95.5346584  38.9347696   0.1707583  95.0168991  38.8967204   0.9749407
  96.2816334  38.3604670   0.3394214   8.8518119  64.7956800  28.5243917
   9.5807302  64.5558119  27.9522276   8.7246436  64.0297270  29.0841913
  85.4688413  73.7768410   0.8319935  86.1129291  73.7937449   0.1241097
  85.9650858  74.0211104   1.6132149  66.2787247 101.2270164  78.4217596
  66.9128609 101.7014503  78.9593649  65.4405260 101.6480732  78.6124325
  16.8807364  19.2582440  91.3658333  17.3906362  18.7031007  90.7758808
  16.3685834  19.8194933  90.7836533  29.7657037  74.6362829   2.4623480
  30.3801465  74.7361994   3.1894702  29.4526887  75.5241966   2.2895409
  63.9421988  24.5410299  77.9514647  64.2392635  25.4075289  77.6736832
  64.3873119  24.3912315  78.7855339  79.3628550  90.4981709  81.4284706
  79.2187357  91.3934803  81.7348576  79.4545460  90.5816555  80.4793453
  90.9990788  11.1764848  64.5705986  91.3080597  11.1783528  63.6646414
  90.0514603  11.0611868  64.5002317  17.1286845  35.4364181   1.6866359
  16.8886709  34.6864104   1.1424699  16.3034964  35.7213283   2.0792201
  61.5958214   4.3290240  69.7948074  60.7502317   4.2621842  70.2383614
  61.6498566   5.2439797  69.5188236  63.5723257   1.5267059  61.6016293
  64.3741894   1.0040374  61.6096687  63.5163641   1.8930601  62.4841738
   1.4881183  19.3009639  60.7296085   1.6415791  18.3648634  60.6015587
   0.8006077  19.3422413  61.3943291  64.0068769  79.1955948  70.0412989
  63.4726048  79.2747116  70.8315706  64.7071886  78.5903740  70.2852392
  10.8632720  17.9111111  82.4696541   9.9637771  18.2113254  82.6000786
  11.2646043  18.5871398  81.9236183  84.0707016  25.4106617  18.1745970
  83.8299179  26.3340139  18.0992484  83.2509613  24.9370742  18.0332613
  13.6280441  59.2716932   3.9950731  13.3426297  58.4558773   3.5837123
  13.8638461  59.8399591   3.2617933  87.7864552  16.4655852  43.1372881
  87.5948143  16.4007246  42.2017145  88.3129406  17.2607625  43.2193613
  21.5953040  59.4112158  12.3260081  21.4955640  58.7330437  12.9941165
  22.0654726  60.1171684  12.7696347  74.5666885  14.2894018  84.4976044
  73.9526463  15.0159681  84.6038246  74.6018982  13.8774157  85.3608894
  71.1866903  85.6699753  70.5678415  70.8035231  86.4982700  70.2791548
  70.6770945  85.4268360  71.3407755  34.2092514  78.7244368  90.5718040
  33.6802053  79.4719172  90.2932167  33.5706663  78.0390263  90.7684040
  66.9018602   6.5928584  48.7590504  66.2289429   6.3308811  49.3873692
  66.4138603   6.9855762  48.0352688  64.0119123  52.8089523  81.8939304
  63.4021950  52.0745134  81.9651699  64.8061419  52.5043297  82.3328304
 111.2691021  89.3087864  26.6779828 111.6105175  88.9797306  27.5094795
 111.3286877  88.5619450  26.0822415  74.3273592  80.8954144  74.0062761
  73.4346390  80.8551121  73.6632681  74.2423153  80.6429958  74.9256659
  59.0145588  89.3156910  82.1792984  58.6386395  89.5798969  81.3395882
  58.3936977  88.6767006  82.5292110 100.1685333  11.9620037  76.6227388
  99.8017406  11.3531017  77.2637796  99.4840813  12.6194143  76.4979267
  13.5975838  12.8627086  59.3581581  14.3552876  13.1586874  59.8626518
  13.0270183  13.6297989  59.3106222   6.0660112  77.0127106   2.3423764
   6.4300710  77.8732681   2.1346840   6.6098291  76.3975096   1.8504232
   3.1388035  26.3237739  77.0862865   3.6341822  25.6982040  77.6149607
   3.7690559  26.6439319  76.4409113  27.3311734  74.5222855  12.6135981
  27.2396660  74.0783787  11.7705059  28.2765484  74.5857048  12.7495253
 102.0455742  39.6162701  34.4053245 102.0524502  39.5027947  33.4548998
 102.5896072  40.3888464  34.5582390  53.2853746  85.3572464  34.8116183
  52.8482103  86.2084579  34.8353910  54.1665554  85.5312347  35.1424956
  23.2942295   7.1108222  58.8423443  23.7721682   6.3465708  59.1644096
  23.0411983   7.5860798  59.6337605  96.8900776  19.5703161  75.9341574
  97.0349884  19.0907562  76.7497873  96.7207623  18.8895619  75.2828979
   1.6695401  24.0740156  54.4565392   1.6847537  24.1010714  55.4132318
   1.1954072  24.8656392  54.2020512  89.1134834  13.4892082  62.2230148
  88.3629322  13.9975524  62.5304317  89.4182014  13.0188501  62.9989958
  70.5657339  96.9819832  60.3348017  70.9159899  97.4853325  59.5998240
  71.3356590  96.5839863  60.7410717  97.8780746  41.4249468  39.4280934
  97.4681377  40.5652332  39.3327761  98.3239269  41.3852167  40.2741814
  50.5726957  66.4485693   2.5260934  50.9291267  66.9754124   1.8108121
  50.9565830  65.5809975   2.3988928  90.0486851  22.2557068  84.7915459
  89.7621059  23.0632663  84.3649864  90.9785175  22.1873140  84.5748425
 106.2887383  11.4792013  64.4050980 107.2408867  11.5653968  64.3580103
 105.9714794  12.3770618  64.5021820  14.0845108  34.1893864  56.6056776
  14.5594776  34.6919346  55.9437990  14.7133422  34.0779328  57.3186874
  16.4731467  54.0509224  78.8782644  17.3593509  53.9023972  79.2081356
  16.3073444  53.3101606  78.2951593  35.6884718  32.4061799  75.6366682
  36.1983967  32.2080326  76.4221287  35.4576921  31.5490842  75.2783918
 107.7722645  27.3257089  72.1510696 108.4155846  27.0930529  72.8205776
 107.0349216  27.6873255  72.6427984  20.1859975  30.6467271  76.2407494
  19.9040484  29.7320557  76.2513351  20.0323129  30.9550834  77.1337938
 104.3426514  22.2732735  78.2970858 103.4012318  22.3863816  78.4281635
 104.4342709  22.0932508  77.3614407  98.3467579  42.6348829  62.5207329
  98.9123058  42.8547382  63.2610416  97.8625298  43.4409046  62.3416042
  10.5258060  21.5222001  90.8175850  11.1451185  21.5715456  90.0893974
  10.8933485  22.1023631  91.4843273 105.9468460  44.7568226  72.9020739
 105.5969715  45.0308657  72.0543051 105.2017784  44.3571281  73.3507967
   8.0027550  11.3074040  61.9377565   8.3742845  10.4256403  61.9640064
   8.7637919  11.8871510  61.9069529  32.6181293 102.3427868  58.1631565
  32.0560932 102.7361488  57.4956179  33.4395432 102.8304482  58.1023788
  64.7688341  76.2227011  14.0920329  64.5713758  75.3088427  14.2972422
  64.7192669  76.2698889  13.1372821  43.7943935  20.7137227  42.7965593
  43.9011621  21.2343550  43.5926580  43.8321638  21.3531995  42.0853090
  98.5030460  15.9680569  68.6463785  99.3585587  16.3650012  68.4827900
  98.6913967  15.2158093  69.2075205 104.5773411  25.9632039  74.0298367
 104.3488503  25.8466387  73.1076479 105.1413345  26.7365193  74.0409470
  34.0556979  12.3544288  77.6251936  33.7641072  13.2493663  77.7992392
  33.9436913  11.8994331  78.4598589 101.6003036  35.9430337  72.3372269
 100.9863281  35.2607012  72.6086903 101.7288208  36.4756465  73.1221056
  12.6974463   2.3918822  82.4940491  12.0540249   2.9622507  82.9146671
  13.5445893   2.7498275  82.7594852  84.8058224  97.5190353  91.5039253
  84.1102505  97.6802921  92.1414280  84.3455887  97.2365761  90.7135868
   9.7074640  27.8326368  86.6244602   9.3156970  28.5608935  86.1423874
  10.5424035  27.6751900  86.1836433 102.7611923  87.6069736  88.2117462
 103.4166431  86.9100952  88.1803513 102.0732498  87.3158646  87.6132298
   1.6147016  95.6131077   0.7338651   1.7102125  96.4986038   1.0846014
   1.6574347  95.0449371   1.5030120 100.6867504  43.6878920  68.1679773
 100.7599163  43.6383390  69.1210890 100.0141907  44.3512535  68.0135536
  19.3893206   4.8764580  90.0742149  18.7183249   5.4927045  90.3678799
  19.0406621   4.5126009  89.2604160  21.2385297  66.6534567  57.8644609
  22.1012735  66.3227844  58.1145859  21.3841653  67.0930958  57.0267630
  61.3105297 104.2938328  72.7200794  61.3593721 103.3839703  72.4268198
  61.0675049 104.2349625  73.6440420 105.3376579  49.7114611  82.6678944
 105.5438614  49.4346952  83.5607052 105.2906227  48.8958263  82.1691322
  10.6066394   4.9565420  35.9155250  11.1504722   4.4160655  36.4885545
  11.2305176   5.3952295  35.3371119  87.1242332  30.9342813  76.8144226
  87.7162075  30.4501319  76.2387562  86.5826511  31.4529562  76.2195253
  39.6730709  27.7541733  77.1198845  38.9915037  28.0701804  76.5267229
  39.5989966  26.8005395  77.0834541  22.8012729  25.2944732  77.0564556
  23.7524962  25.1958060  77.0973206  22.6626873  26.0401821  76.4725542
  13.0246854  19.1886413  53.9848900  12.4306059  19.6733820  53.4118891
  12.8014314  19.4850647  54.8672295  15.3632557  12.4327409  85.4175568
  15.2751482  11.8251109  86.1518955  15.6664014  11.8881381  84.6911049
  33.7051558  19.9133456  73.0597973  34.1078472  20.1676655  72.2294998
  34.3397236  20.1794481  73.7251854  94.9527073 104.4138622  48.1344032
  95.4647827 104.8413086  47.4478912  95.1342487 103.4806919  48.0227423
 112.0349407  57.2861004  23.4145451 111.8691540  57.5435686  24.3214393
 111.5089989  57.8927326  22.8933787   2.7655581  43.3382988  60.7330751
   3.4684971  43.3203888  60.0836229   2.8093708  44.2173815  61.1092615
  12.9932237  44.7600794  79.3273306  12.2447979  44.1658020  79.2732191
  13.5677338  44.4874716  78.6118937  12.6173377   9.3299341  52.7253962
  13.3228970   9.7687244  53.2006645  11.8176830   9.6127969  53.1689882
 108.6696911  57.1619606  80.5024433 107.8460884  57.5225353  80.8309269
 109.1307068  57.9153156  80.1334572  99.8346710  94.6401405  55.1203394
 100.4273129  95.2639198  54.7009277  99.1513538  94.4835949  54.4685793
 106.7994404  12.9857779  51.2212276 107.3263550  12.1869040  51.2014055
 106.0236073  12.7739215  50.7021523  45.9353399  18.8473368  43.6142921
  46.5839481  18.9147127  42.9135799  45.2217865  19.4215620  43.3361959
  77.1499681  16.6631186  39.5771194  77.5028372  16.8634391  38.7101769
  77.7036858  17.1577585  40.1812410  55.2414989 104.7575474  41.7190170
  55.6656456 105.1969147  40.9819412  55.5000496 103.8400459  41.6319180
 112.1353054  19.0864408  73.3686638 111.8424988  19.9797404  73.1883478
 112.5695324  18.8092804  72.5619030  15.6608927   1.2921296  71.7880154
  14.9334633   1.6724549  72.2803879  15.5595338   0.3472241  71.9025183
 106.4410400  28.3245993  47.9896021 106.4100361  27.6095390  47.3540258
 106.8973351  27.9539800  48.7450266   3.1369677   7.8768122  81.1548996
   2.3707277   8.0707586  81.6947937   3.7703967   7.4989325  81.7649841
  54.4549417  64.3504333  20.4383397  54.5977879  63.6918736  19.7585392
  54.9840736  65.0986624  20.1619267   2.9515129  83.3738232  46.9909048
   3.0304170  84.3159962  47.1402740   3.1754449  82.9781914  47.8332615
  31.1291265  35.4666448  62.8216600  31.8842721  35.0264549  63.2118177
  31.1536860  36.3517928  63.1851721  15.7528722  35.0152278  71.3313198
  16.0350645  35.4362631  70.5193329  14.9534500  34.5460320  71.0925531
 101.7054081  80.6045628  43.4142256 101.7850113  80.4044724  44.3468904
 102.3156261  81.3281059  43.2715607  37.1224022  71.6049147  59.8677206
  37.3843288  72.0220327  59.0469646  36.1770582  71.7466402  59.9173880
  33.5730457  83.3020496  11.5247536  33.5761833  84.2504787  11.3954902
  33.5918808  82.9395485  10.6390512  14.1533649  51.4726353  85.6882858
  13.6590934  50.6530046  85.6768894  15.0692344  51.2008715  85.6286430
  18.9384329  57.7004147  85.9982014  18.5794556  58.5277081  85.6773376
  18.2260609  57.3107719  86.5050888 109.5108414  14.9779546  25.2441001
 109.7163296  14.0450072  25.1839852 108.9806747  15.0558114  26.0372543
   7.9560268  21.0733700  89.5761967   8.8254863  21.3585258  89.8571873
   7.5844967  21.8371534  89.1347980  16.8465889  72.8150845  60.8970022
  17.0401263  73.0486488  59.9891329  16.9737768  71.8670416  60.9327364
  29.5352387  10.4785013  33.5477829  28.9512348  10.1294219  32.8744984
  29.0156245  10.4547560  34.3513179   4.6805328  12.1671295  51.5131664
   4.7500774  13.0588758  51.8540287   3.9017004  11.8082285  51.9384241
 100.7738400   1.3203402  47.3020363 101.2053013   1.6114184  46.4986992
  99.9067497   1.0318223  47.0171881  20.1126432  34.3071795  76.8707275
  19.9051225  34.2582226  77.8038788  19.3790019  33.8695121  76.4389277
   3.6997342  41.0551262  50.4914951   2.8411692  40.7291317  50.2216291
   3.9346799  41.6955137  49.8199797   4.8016635  34.6143985  38.0915523
   4.2518538  35.0409651  38.7488079   5.6544882  35.0399661  38.1799483
 108.4083080  15.7214129  60.1929617 107.9849434  16.5108812  59.8557091
 107.8749275  15.4665971  60.9458208   3.3105943   9.8991632  70.7168150
   2.4694410  10.3098810  70.9168243   3.5625872  10.2690852  69.8707104
 106.5394878   8.1852335  28.2581711 107.0133877   8.6745340  27.5856853
 106.9587231   7.3247868  28.2684588  14.9149096  86.3476086  11.2938428
  14.7121155  87.2829914  11.2810481  14.3361115  85.9679794  10.6327021
   5.2666497  63.6567545  53.3965588   5.3741902  62.7063179  53.3599281
   5.8031070  63.9864540  52.6756239  34.7402763 102.3516273  12.2036755
  34.6003246 103.1486225  11.6923690  35.6891108 102.2255802  12.1958768
  16.0203350  33.9622927  84.0900803  15.5841100  33.6570072  84.8855305
  15.7405233  34.8730350  83.9979458  96.7218494  37.2061372  58.9346457
  97.0306396  37.4074006  58.0512524  97.4671841  36.7796612  59.3575287
 112.0885086  28.0590200  64.8223639 111.8675232  28.8732338  64.3702030
 112.4283123  27.4873519  64.1339159   0.5536282  48.7994289  85.2398872
   0.4316735  49.7415304  85.3573608  -0.1916923  48.5262966  84.7049713
  25.1087880  47.9030800  79.4933224  25.3165126  48.3153391  80.3318501
  24.2212844  47.5630045  79.6069717  18.5136998  41.9570780  44.9640322
  19.2771924  42.5194216  44.8333359  18.7159157  41.1607122  44.4729710
  37.4623632  50.3526497  55.9523106  37.8642082  49.7134209  55.3639746
  36.9345188  49.8265839  56.5530300  32.1113300  32.2347832  69.7538614
  31.1585712  32.2453022  69.6623611  32.4379897  32.4679375  68.8848639
  26.7021155  29.0560675  88.6440277  26.5563679  29.1163158  87.6999092
  25.8535671  29.2706037  89.0315437  14.7550333  27.8780222  71.6033363
  14.6922171  28.8224888  71.7456961  14.5594573  27.4934769  72.4577999
   7.1656185  53.7473249  69.4343328   7.3096889  54.6573877  69.1749859
   6.5376067  53.4124279  68.7942696  93.3627701  46.9743967  56.2192822
  92.4763012  46.6134548  56.2308645  93.8875675  46.3361645  56.7024755
 104.8367405 103.2561016  74.9085665 105.1541138 104.1388893  75.0987720
 105.2677631 102.7013588  75.5587387   9.4733471  23.1738043  66.5078783
   9.9730247  22.3594189  66.4501667  10.0896943  23.8529134  66.2337255
  99.9225426  16.9257712  80.2519131 100.7839012  17.0326185  80.6554890
  99.8124790  17.7081895  79.7116041  58.8277531  75.9330320  14.2458344
  58.2192898  76.4164400  14.8046935  59.4824266  76.5817165  13.9872873
 102.4881935  69.1414928  69.3355703 103.1225395  69.0459251  70.0459909
 102.2423649  68.2439137  69.1116142  43.5861349  33.3344579  70.8456516
  43.8894272  34.0575647  71.3946199  42.6527739  33.2584047  71.0438681
  11.8134332  67.1955395  67.7669477  12.0461798  67.3867893  66.8583870
  11.8374312  68.0465126  68.2045555 110.4721069  43.7851334  71.4555645
 109.6422672  43.6341429  71.9081068 110.2477551  44.3719101  70.7333469
  95.1303864  32.8726172  56.7779684  94.6509647  33.4090304  56.1465836
  94.4654655  32.5899982  57.4058533  28.0063057  14.4034708  54.8475742
  27.5897884  14.9953175  54.2211056  27.3763633  14.3318594  55.5647039
  25.3124547   7.1913725  86.8990326  26.1306596   7.0586497  86.4203358
  24.7042179   7.5330150  86.2436295  26.0393667 100.2611256   2.5646284
  26.3031030  99.3612957   2.7569425  26.4895129 100.7888317   3.2242751
  16.1199856  56.2905979  71.9757080  16.3890004  55.5116892  72.4627113
  16.5665233  57.0141029  72.4154568   7.3097247  29.1156936  69.2317438
   7.5011224  30.0504327  69.1552019   6.3960093  29.0806961  69.5148182
  22.7913547  67.0818710  73.5930967  22.7960849  67.1789026  72.6408386
  23.3287001  67.8076553  73.9104748  28.3137822  40.4693222  82.9664516
  27.5668287  40.7119465  83.5136509  28.9892888  40.2001572  83.5889244
  40.3952599  10.9194040  82.6559639  40.2097034  10.8581853  81.7189121
  40.8592463  11.7508197  82.7544212  27.1874809  32.8520131  48.3435965
  27.6834631  32.8298903  49.1619730  27.6736355  32.2763491  47.7532578
 111.8417645   4.7126189  66.2483454 111.2610054   5.0829816  65.5836773
 112.3131847   4.0151864  65.7927370  98.8729095  16.5715098  55.9941530
  98.7868881  15.9989703  55.2319002  99.8088360  16.5643501  56.1946821
  30.0322127  25.0597239  75.3243256  30.7325506  24.4630623  75.0602150
  29.2785382  24.4904947  75.4798317  60.7548952  96.7780781  16.5293026
  60.5056906  96.2125778  17.2602832  61.0651255  97.5829983  16.9441402
  98.4589958  32.6059937  78.5226393  99.0334892  33.3687425  78.4562445
  98.9922333  31.8763423  78.2071924  64.8916864 104.5732784  44.5487642
  63.9720678 104.8140240  44.4366312  65.3725243 105.3868294  44.3965864
  30.4249239  64.8129511  45.2630472  30.4989958  64.6417809  46.2019014
  30.4964304  63.9496517  44.8558187  11.6923475  23.2241035  86.0790062
  12.0110500  22.3237181  86.1420155  11.0865009  23.2124329  85.3380299
  10.4050756  44.4125700  76.8275928  10.2285457  43.5039186  76.5838385
  11.3349748  44.5354223  76.6367388  42.7569914  45.8467150  86.1664295
  42.0648432  45.2073812  86.3350105  42.5665426  46.1803246  85.2896976
  90.9123421  50.8064938  36.2375712  91.0050869  51.7186260  36.5125990
  91.5466213  50.3293324  36.7725945  26.1045146  30.0152874  43.9895725
  26.7045188  29.7334385  43.2990742  26.0910249  29.2848349  44.6080303
  18.7388587  38.2955813  57.1666002  18.8218498  39.0186524  56.5448952
  18.1982648  38.6482882  57.8734159  91.5267372   7.3898482  11.0679805
  91.9445610   7.1801740  10.2327037  91.6902828   6.6228533  11.6167998
  11.9774079  12.4661827  41.2457132  11.9271839  13.3859956  41.5058136
  11.1092460  12.1140337  41.4419746   5.0844353  18.0747414  51.2238836
   4.3520933  18.6799276  51.1070251   4.8593184  17.5750327  52.0086432
   8.0190498  21.6258287  69.8082829   7.0837390  21.7267537  69.6315384
   8.3864582  22.4969339  69.6585655 103.4198189  54.9301863  86.9456863
 103.3491421  54.7487974  86.0084915 102.8595448  54.2736959  87.3596287
  86.8653297  86.3001060   4.9170923  86.9502640  85.6923580   5.6517076
  87.2485447  85.8332729   4.1744959 104.8831654  98.6655140  58.9990473
 105.8080864  98.6677742  59.2455053 104.7726536  97.8618431  58.4909725
  15.3849423  50.4957342  61.6982508  14.4736981  50.7279730  61.8769407
  15.3337133  49.8492479  60.9942150  94.2832470  17.4370205  33.7036443
  93.6482239  18.1515265  33.6540866  94.7323799  17.5731885  34.5378923
   5.4595715  49.2469692   9.9422544   5.2076608  49.1828299  10.8634818
   5.9012467  50.0933599   9.8730940  93.0351448  95.2007580  22.5787854
  93.2323837  95.7965660  21.8560529  92.0818329  95.1156044  22.5656295
  13.6107302  88.3334923   3.7137574  14.3414736  88.6702442   4.2322582
  13.0445230  87.8991222   4.3516910  34.9746323  51.6848183  79.2995167
  34.2675090  51.9144297  78.6966181  35.1572585  50.7635546  79.1147280
  31.2352729  80.0828934   3.4956840  31.5168357  79.4827700   4.1861963
  31.9821906  80.6675720   3.3672476 103.7229919  84.4110489  39.1316080
 104.3555355  84.1474152  38.4633136 103.9715195  85.3077221  39.3561745
  21.0619164  21.2682652  78.8689184  20.9048939  20.5055857  78.3122396
  20.4588008  21.1566544  79.6037865  15.0420082  45.2154160  65.3483582
  14.2935383  45.2176762  65.9450340  15.7036066  45.7461500  65.7920265
  27.2244358 102.4127293   8.5143912  26.8681192 102.4490547   9.4020569
  26.7715478 101.6757679   8.1044859  30.5355644  29.6521616  55.8465147
  30.2888656  29.2284083  55.0244427  30.8662319  28.9396071  56.3934660
  89.0122032  98.6642838  83.9949512  88.1661797  98.7045479  84.4408798
  89.5169163  99.3842030  84.3733788  77.6235342  30.3864813  80.4973125
  77.2696066  29.4976234  80.5272388  78.5730076  30.2658820  80.4835415
 100.8334446  18.0450416  44.5864964 101.3754082  17.3015189  44.3225193
 100.3160477  18.2525146  43.8083649  44.4081163  77.0153570  13.5942614
  43.8170910  77.6882029  13.2563257  43.8693380  76.2256670  13.6426461
   7.2484189  36.7432070  54.6696091   6.3053310  36.5901875  54.6112776
   7.3293608  37.5466871  55.1835155  35.7341852 101.2860630   0.2230534
  35.6275930 101.4835451   1.1535725  35.0063123 100.6992767   0.0178227
  29.1246200  44.0787792  43.9515018  29.1048908  44.8631954  44.4997120
  29.9846673  44.1013718  43.5319281  35.8577681  92.5817680   0.7441051
  35.7750249  92.5849915   1.6977164  36.7974639  92.6704693   0.5849286
 105.8852291  47.0068789  81.9626522 106.1393642  47.0026159  81.0398197
 105.1460457  46.4006090  82.0103264   5.5513310  62.3444128  70.9010172
   4.8407257  62.8584337  70.5175400   6.0556865  62.9771471  71.4123917
 106.2393665  58.9156628  83.3419514 106.0395622  58.3001709  84.0472794
 105.7462597  58.5868692  82.5903034  24.8331261  38.2319736  61.1324787
  23.9796901  38.3372283  60.7120037  25.1314783  37.3657179  60.8553076
 111.8612957  30.8832145  78.3538961 111.2209129  31.5946221  78.3469009
 111.3469410  30.0998688  78.5489273  39.2206526  69.6777582  13.2588661
  39.9922895  69.5415545  12.7090871  39.5569205  69.6503258  14.1546345
  97.6235867  39.1557217  64.3238735  97.7793026  39.0023518  63.3919621
  97.8735733  38.3342433  64.7468519 109.7986794  24.6443176  40.4364204
 110.1229095  24.8466277  41.3140202 108.8868141  24.3865013  40.5715132
  42.8310776 101.2635040  26.7203522  42.8245258 100.8816528  27.5980663
  43.1492949 102.1568775  26.8501854  94.7632504  53.0271816  44.0070105
  95.6110001  53.1187010  44.4419527  94.4904232  53.9259481  43.8225794
 109.9207687  30.3197098  88.2069111 109.7386742  31.2410665  88.0220509
 109.1125011  29.8639798  87.9718781  11.6437042  28.4523082  74.4206810
  11.3378215  28.5518622  73.5191536  11.2706017  29.2019939  74.8843622
   8.3822328  29.0226293  72.6557589   7.7986616  29.5164323  72.0797062
   9.2627931  29.2756867  72.3786163 103.1253052  23.9881253  51.7926502
 102.4419403  24.3616557  51.2361288 103.1963634  23.0775619  51.5061903
 111.9366741   2.2215515  52.2810364 111.4397717   2.0934457  53.0890656
 111.3848209   2.7946144  51.7487907   8.7804252  25.3135228  79.0220261
   9.4072157  25.0068784  79.6772623   9.2184275  26.0518837  78.5986948
 100.3974152  38.7140560  88.9305687  99.9880409  39.5627856  89.0987873
 101.3374710  38.8931537  88.9518166  95.2740097  34.6335530  52.5421381
  94.9465370  35.4908967  52.2701931  94.9523354  34.0306640  51.8718529
  12.7340388  48.3632612  66.2556934  12.7757978  48.5446119  65.3167582
  13.6425066  48.1989813  66.5085411   4.1944560  54.8188543  80.0774860
   3.5947427  54.1944504  80.4857635   4.9986225  54.3198729  79.9340630
  12.8365004  56.0192299  60.6269264  12.3737204  56.4198685  61.3628292
  12.1525705  55.8444214  59.9804640   3.8794968  44.7333336  74.7933292
   4.2489615  44.5086241  73.9393759   4.4706845  45.4005289  75.1420116
  89.1981316  22.3150492  65.8338451  89.5762444  22.9476118  65.2229977
  89.6477795  21.4933753  65.6365967   1.0639845  40.4985619  77.5266743
   0.3133442  40.3827190  78.1092167   0.6852488  40.8228064  76.7095757
   5.5576885  41.5588188  19.7095025   5.6594807  40.9634161  18.9669657
   4.6854228  41.9363117  19.5959890  75.3293705  25.0494719  89.1302681
  76.0113049  25.0199199  88.4592056  75.5801582  24.3705249  89.7566605
   5.5440682  21.6801643  59.5089149   6.1202961  21.0101652  59.8767376
   5.0910211  21.2384105  58.7906981 111.6444778  21.7268753  39.0124488
 111.8505859  20.8038235  39.1598558 111.8090534  22.1468210  39.8567200
  17.0761418  54.3651056  92.0577908  17.1116030  54.2969561  91.1036873
  17.1102321  55.3056717  92.2321701 108.1543159  64.8036385  66.4869690
 108.9439392  65.3005743  66.7009258 108.3898830  64.3047523  65.7047606
  60.6692402 105.6101920  42.7466583  60.1406281 104.9585181  43.2072258
  61.3169472 105.0959754  42.2646999  71.1951923  47.9011774   0.9535153
  71.4495707  48.1109238   1.8521427  71.6160917  47.0601034   0.7755607
  26.3286781  53.5478878  18.8012755  25.7043624  53.4431696  18.0832958
  26.1701441  54.4330263  19.1293418  91.4007473  54.2360926  80.4722691
  90.7162476  54.1003323  81.1274529  91.2277412  55.1102304  80.1227283
  29.4694686  28.1569886  53.8007975  29.2524314  28.1499958  52.8685522
  29.8094678  27.2791600  53.9741468  23.6747503  12.1169853  49.5988512
  24.6259880  12.0601368  49.5086002  23.4885907  13.0558157  49.5856333
   8.6286145  59.7649002  57.4022436   8.2341504  59.6879578  58.2709837
   9.4966042  59.3728447  57.4977446 103.6020470   0.4562831  63.9225817
 103.3067226   0.9242655  64.7036123 104.4420433   0.8601917  63.7046480
  58.0075169 102.9666424   9.6985233  57.2603083 102.8709698   9.1079664
  58.0160284 102.1559048  10.2073050  32.2514915  50.2242470  36.4452052
  31.9948554  49.3021774  36.4577532  33.1113315  50.2278471  36.0246158
  65.5319977  62.1485043  12.9565632  65.1203585  62.1293211  12.0926082
  66.1039877  62.9156256  12.9323637  95.8542633  41.2000132  82.7663136
  95.0893402  41.1574125  82.1924591  95.5506897  41.6835737  83.5345840
  60.9671736  14.5054758  91.0270977  61.2688732  14.9222088  90.2199173
  61.1870193  13.5805404  90.9157658  85.3231049  48.2976675  67.9458141
  85.6184864  47.3988438  67.8005552  85.7592392  48.8065147  67.2623777
   6.7944831  29.8244143  57.5202656   6.4937139  29.6154165  56.6359043
   6.6152000  29.0327477  58.0275679   7.3403263  17.6368439  47.4046803
   7.1501511  16.7127073  47.5660419   7.4864304  18.0068755  48.2752895
   2.7322966  10.2023017  52.7103949   2.2686812  10.6434774  53.4221935
   3.0215719   9.3729264  53.0907774  32.5972772  73.4790564  38.3118296
  32.6407361  72.5230694  38.3324599  32.2266030  73.7203407  39.1607213
   0.2290518  22.0563340  72.5950050   0.5684740  22.9453778  72.6980782
  -0.3217619  22.0993733  71.8133497  12.4004614  36.1707449  77.4933243
  11.6848612  36.7761898  77.2994614  11.9699192  35.4047847  77.8730249
  19.6431792  37.7338457  46.1402225  20.2197027  37.8052425  45.3794622
  18.9336061  38.3510089  45.9617710  85.1549911  54.4593668  78.4912205
  84.7914791  54.8731613  79.2740774  84.8722172  53.5467434  78.5494614
 103.3608437  18.3632791  67.5532198 103.8845825  18.2512784  68.3465576
 103.7886143  19.0788281  67.0828581   9.8985142  77.3758030  56.2386274
   9.5999116  76.4835215  56.0628271  10.0664794  77.7471685  55.3725386
 106.7862320  49.5076942  78.5610390 106.9919395  48.6363935  78.8997936
 106.7585087  50.0662899  79.3378496  42.6809597  23.6041069  58.6831808
  43.1738281  23.5432076  57.8648901  41.8133736  23.2628798  58.4661865
  22.5572777  74.1179419  74.6716785  22.1183896  74.1091824  75.5222845
  22.3115993  74.9579525  74.2840433  16.2905931  39.8236895  80.3334045
  17.0281482  39.4005203  79.8938894  16.6962826  40.3978729  80.9829903
  98.0069065  24.6852636  82.7376366  97.5035095  24.8049474  81.9323444
  97.3467064  24.5172215  83.4100533   6.4263368  51.9838190  57.5720930
   5.7429236  51.3396072  57.3872471   6.4363551  52.5504208  56.8006706
 112.0465755   6.1219579   3.4512296 112.1552658   5.2243316   3.1370869
 112.9078102   6.3619965   3.7931287  31.5123987  47.1575308  58.2534790
  31.0597587  46.4613867  58.7296438  31.6809440  46.7852163  57.3879099
 103.5721970  39.7797871  53.4921789 103.2678127  40.6401443  53.2034397
 104.5189285  39.8812008  53.5903358  47.5864410  41.2906504  49.7643375
  48.2365847  41.5627575  49.1166449  47.2361374  40.4685545  49.4212961
  98.6588287  19.1303754  84.5177650  99.1208076  18.2975554  84.4217587
  99.2988396  19.7136545  84.9256992  18.2770240  46.9586372  73.2968521
  18.4140217  47.9050255  73.2543135  17.4835169  46.8548584  73.8220263
  25.0501680  73.3774805   1.4528377  25.6034255  72.6236343   1.2482628
  25.3537202  74.0651894   0.8602613  50.9928274  98.1966782   2.4443780
  50.4826641  98.8823128   2.8755113  51.3823700  98.6297703   1.6848248
   7.7244848 100.9786892  83.4437370   8.1387401 101.8350601  83.3376694
   8.2263422 100.5544090  84.1396904 104.3106365   4.8883191  54.7291088
 103.8470078   4.9382162  55.5650473 105.2201653   4.7121006  54.9698067
  98.1076431  42.1834421  65.3499126  97.2694683  42.4095392  65.7531214
  98.0716419  41.2333393  65.2392578  13.9538491  46.0802555  72.7939367
  13.1578195  45.5771828  72.6222277  13.8185394  46.9077015  72.3321390
 112.2283459   8.0791277  76.4958906 112.1008492   8.5686243  77.3085213
 111.3432503   7.8476506  76.2143421 107.8701305  35.9746623  28.8470030
 107.6872063  36.9112682  28.9214277 107.0115948  35.5568314  28.9145994
  18.9523590  19.5282400  89.1245842  18.7153578  19.7046113  88.2141209
  18.7640905  18.5975075  89.2451000  12.4063993  31.9597578  73.9418221
  12.1022236  32.8655005  73.9996147  13.3440757  32.0096850  74.1275692
  33.1000900  33.0309510  78.1195974  32.2440934  32.6043463  78.0807590
  33.3443785  33.1615996  77.2033596  99.5905495  61.8965292  63.8241720
  99.3648720  62.4547529  63.0800724 100.3627110  62.3110676  64.2090750
  94.4165039  94.4225788   8.4674084  94.1878605  94.0761089   9.3299133
  95.3735065  94.4123840   8.4511918   9.6113056  15.8176839  64.3605089
   9.3140692  16.2731040  65.1482153   8.9696890  15.1192355  64.2311668
 112.2438049  26.4829588  48.2648468 111.6336441  26.9052172  47.6601791
 112.8006363  25.9423375  47.7045774  35.2208400  68.1716251   8.1333351
  35.2374983  68.7321281   8.9090884  34.6906662  67.4183178   8.3934718
  77.1061516  99.1022587  50.2776861  77.1125555  99.3661594  51.1977673
  76.3433456  99.5457363  49.9066210 111.9288731  28.4883547  88.4383011
 111.2546730  29.1677642  88.4474850 112.3376465  28.5681939  87.5764656
  17.5241446  98.0706310  14.9994886  16.9291139  97.9877377  14.2543054
  17.9194832  97.2033787  15.0879359  39.2809868  50.3466225  72.1836424
  39.0863633  50.3198433  73.1204653  40.2301645  50.4621267  72.1394157
  35.1538324  34.0648699  43.9183092  35.5044937  34.1087413  44.8078823
  35.9041142  33.8194585  43.3769369  10.3829575  46.2791634  53.9275980
   9.5070094  46.6039371  53.7191105  10.9734404  46.8509245  53.4370422
 109.2942142   1.3483070  66.7631340 108.7591553   1.0302980  67.4903297
 110.1028633   1.6518927  67.1756220   2.5400648  58.8952923  77.3108625
   3.0287379  58.5229921  78.0449104   1.8899810  58.2274723  77.0926046
  35.1915336  44.3199730  61.1228609  34.8378277  45.2064610  61.1953974
  35.8465123  44.3795919  60.4273891  17.5214458  59.4301176  38.2562804
  18.2492411  58.8694000  38.5248661  16.9269264  59.4266605  39.0064573
  75.5350447 104.9826050  73.9237928  76.3761759 104.6766663  73.5844803
  75.5097389 104.6623516  74.8254728 107.6442432  44.2427588  64.2980671
 106.7084694  44.1540575  64.4788599 107.9315662  44.9566031  64.8673725
  59.8398113  99.1554451  75.3129673  59.6888685  98.2132816  75.3890514
  60.7902002  99.2403793  75.2369833  14.1102672  41.8788958  46.6874886
  15.0621653  41.8230295  46.7711592  13.9271915  42.8179359  46.6572571
  18.5912108  25.0153327  84.1915512  18.2833815  24.7272801  85.0509167
  17.9055846  25.6043673  83.8766193  32.8091455  15.7816470  83.7620544
  32.0063186  16.1725271  84.1068935  33.0569172  16.3484406  83.0315876
   1.9755621  28.7467360  66.5411949   2.1420233  27.8253603  66.7401695
   1.2792730  28.7279797  65.8846426   8.4147322  14.2453778  58.8101816
   9.1866422  14.6988893  58.4714842   8.3944350  13.4167993  58.3313513
  17.9747415  47.4520874  49.2319775  17.2190642  47.4797773  49.8188496
  18.4272218  46.6406250  49.4622469  51.3433933 104.7977448   1.2686229
  51.0665417 105.7129383   1.3133785  50.5525303 104.2980862   1.4713855
  12.2327413  88.3201287   0.6116470  13.0976476  88.6985229   0.7696995
  11.8701734  88.8419984  -0.1041904  45.6577587  40.2969694  65.1442480
  44.9575186  40.2492094  65.7951069  45.7374144  41.2300587  64.9461746
  66.9066906  87.8455353   3.4497872  67.8405237  87.6980686   3.5995829
  66.8559217  88.1628132   2.5481313   1.4046919  65.6564426  30.5597019
   1.7008737  66.0027933  29.7179484   2.2069743  65.3712416  30.9970045
  88.4861755  17.4869382  59.2546844  87.7226543  17.5441539  59.8291349
  88.1789589  16.9894803  58.4967995  25.9936190  66.0246134  82.4280834
  26.9342494  66.0891151  82.2629070  25.5963159  66.0341597  81.5572834
  34.9124885  21.3535905  70.9235191  34.6521282  22.1945405  71.2993479
  34.9690723  21.5190673  69.9824286   9.0287602  43.8887167  72.4180698
   8.3461493  44.4783640  72.7383614   8.6204922  43.4240866  71.6875410
  51.5475368   6.9948697  53.2068014  50.8860350   6.5254545  52.6985741
  51.4577961   6.6485125  54.0946150  37.4653602  31.6127491  77.5411558
  37.7718616  30.9447193  78.1543684  38.0482984  32.3577309  77.6874924
 106.7853355  31.6842532  37.0429659 105.8483696  31.5199733  36.9365072
 107.2072029  31.0476995  36.4658523  84.2875957  45.1485538   0.4206180
  83.5764980  45.3916693  -0.1722331  84.6761227  44.3698597   0.0219790
  14.1149652  92.6715755  15.4597235  15.0049722  92.6378250  15.1090360
  13.6414802  91.9940472  14.9770272  30.1249290  28.1899500  82.0353031
  30.0460744  28.1312394  82.9874420  29.2532468  28.4512448  81.7384434
  18.5661173  30.6053948  64.3268776  18.3499980  29.7913051  64.7816086
  17.8026974  31.1662936  64.4640398  88.8617897 101.6620350  61.6136789
  88.6496735 102.4926090  61.1877728  88.0131817 101.3001823  61.8689442
   9.9671620  39.1789150  61.2043762   9.3203539  38.9651918  61.8768311
   9.4504434  39.5230055  60.4757929  17.9374599  50.8867979  67.0414066
  17.9760170  51.0414362  66.0975647  17.2539473  51.4797735  67.3535395
  15.9895635  62.2666025  52.3360586  15.9071934  61.6549730  53.0677414
  15.5780804  61.8152046  51.5990686  17.6630807  41.7225027  85.3219891
  18.2285535  40.9538889  85.2464294  17.6842785  41.9448805  86.2527561
  11.9765449  48.2846785  88.3324432  11.0296154  48.1448460  88.3303452
  12.3102212  47.6550150  88.9715099  32.3318219  38.7283659  38.8586521
  33.0597854  39.3498969  38.8571763  32.0343924  38.7100220  39.7682834
  33.2473087  50.5378294  54.2970228  33.7173581  49.8545742  54.7749901
  32.4184060  50.6315136  54.7664642   3.8645056  60.1629877  73.5605478
   3.4073240  60.4157877  74.3626165   3.9872262  60.9849358  73.0855989
  17.7817154  22.9492283  56.3822031  17.8900027  22.3812962  55.6193399
  18.4707141  23.6073446  56.2905788 102.0073700  79.9027538  65.3453207
 102.3242760  80.3716660  66.1172819 102.7177525  79.9818707  64.7086573
  96.4066696  33.4529352  84.5270157  95.5615616  33.1208134  84.2241573
  96.8012142  33.8481760  83.7496185  19.2239153  90.7578182  28.5182881
  18.9844680  90.0552177  29.1226482  18.4189582  90.9420586  28.0342126
  30.4688811  53.8285303  87.0524406  31.1191249  53.4636021  87.6526451
  30.2338386  53.0976725  86.4807415  45.6745625  51.6174698  90.2914047
  46.3847637  51.0329866  90.0264072  45.1723337  51.7629766  89.4896412
  37.9510307  13.6445522  82.0569992  37.2211719  13.0919266  81.7774582
  37.9636645  14.3627512  81.4243317  28.7250209  45.4736090  57.7986526
  28.7114167  45.3900003  56.8452072  27.9089618  45.0645256  58.0866241
  64.4878483  87.0204926  26.1269975  64.7760344  87.4968147  25.3483462
  63.6447716  86.6418743  25.8777952   9.1973454  65.8775568  68.8918066
   8.6396742  66.6391754  68.7331438  10.0153065  66.0809612  68.4381580
  24.5999241 105.2686024  70.5278349  23.8348174 105.0249863  71.0488844
  24.3971801 106.1446667  70.1997423  38.8598847  36.1059928  58.8944578
  37.9259539  36.2585402  59.0384531  39.0114737  36.3838935  57.9911184
  96.1248875  11.2087011   0.4684314  96.0441017  11.8333530  -0.2523432
  95.9528542  11.7267334   1.2547371 109.5081520  34.6626449   8.3291763
 109.6978474  34.5709944   9.2629027 109.3311501  35.5959105   8.2112074
  77.1011496  63.3895493  16.9518924  78.0450773  63.2823896  17.0691383
  77.0186949  64.0496683  16.2636530 101.9970131  62.9018879  90.7467842
 101.5983582  63.7071037  91.0768223 102.5067234  62.5671148  91.4845943
   0.2596565  30.9283519  81.1225986   1.0108888  31.4820528  81.3354301
   0.2067444  30.9533262  80.1671886  12.5745332  44.7385645  75.6181622
  12.4802458  44.3669081  74.7411156  13.4436989  44.4582748  75.9048986
 100.3712559  48.4214020  57.5396585  99.4917011  48.0732679  57.3933315
 100.3167439  49.3352127  57.2599983  16.1621010  17.0088303  68.6158657
  15.2926767  16.7581701  68.9281178  16.6436255  17.2420228  69.4095850
   2.2303438  58.9005709  80.9884834   2.8394005  59.6286535  81.1116695
   2.1863712  58.4773970  81.8459320  26.6115832  40.8058500  54.4018650
  26.3855100  41.1410809  53.5342550  26.1112261  41.3525057  55.0077057
  15.4831636  52.8545332  50.3725195  16.0050225  52.0922375  50.1219082
  15.1501977  52.6407909  51.2441158  19.9986601  25.6986308  78.3301306
  19.6246290  25.8353209  77.4597025  20.9324384  25.5612588  78.1706953
  26.1156392  43.9670324  81.8058109  25.3731346  43.3987904  81.6008282
  26.2757993  44.4530296  80.9968662  25.4300904  60.4693556  80.8572292
  24.8653030  59.8211765  81.2780666  25.2575731  61.2820435  81.3326359
  56.1168194  72.0958757   2.4047004  55.1703262  72.1894455   2.5125363
  56.2793875  72.3401642   1.4935872 109.9094105  64.9289656  77.0350742
 110.5463123  64.7382689  77.7237129 109.2181206  64.2790699  77.1615362
  19.9160016  64.2233896  51.4473677  19.1342270  64.7321892  51.2324667
  20.3803134  64.1346693  50.6150341  27.8806806 102.8072166  87.4590111
  27.3411322 102.8549480  86.6698170  27.2503304 102.7812767  88.1788921
 110.4828548  30.5107689  59.6316481 111.4005852  30.2615356  59.7407246
 110.4238033  31.3834047  60.0205564 111.1269855  48.3795071  76.7504787
 111.8497086  48.2597065  76.1343956 111.5168095  48.8474655  77.4889135
   2.2961165  37.6311398  46.8700504   2.8841558  36.8908405  47.0197105
   1.6480513  37.5678897  47.5716496  21.8224382  42.1083307  82.1175098
  21.9400311  41.3993788  82.7497959  22.4743509  42.7630234  82.3677444
  77.0471478  12.9607284  13.2456076  77.2835445  13.7964034  12.8431201
  77.3484612  13.0371785  14.1509235  22.5413179  41.2871313  72.7357006
  23.4794450  41.1366129  72.6195383  22.4468064  42.2393656  72.7122021
   9.1282785  52.2247505  89.5998383   9.9987662  51.9441080  89.8821926
   8.5330892  51.5795469  89.9815273  22.5910735  76.9184208  65.4132175
  22.8763676  77.7531815  65.7847166  21.8588924  76.6475296  65.9670782
  38.5390854  50.6614971   3.2861853  38.2639027  50.5461740   4.1956943
  37.7323771  50.5723619   2.7787328  38.5928345  43.2949209  61.4341021
  38.1373596  44.0880823  61.1518383  38.8264036  42.8500652  60.6193781
  94.6685028  14.0762556   0.4370005  94.4063282  13.8257313  -0.4488537
  95.0309277  14.9568069   0.3395164  20.3091955  19.8418999  64.6935606
  21.0462284  20.4450655  64.7894955  19.6240592  20.2102852  65.2513361
  35.9456277  49.4664192  77.7338552  36.3872910  48.7127399  78.1251764
  35.0599337  49.1548538  77.5475550  35.4089785  29.3072176  83.9270306
  35.5005932  29.1640139  84.8690128  34.5359468  28.9749885  83.7180519
  46.4568138  67.6004124  63.0227900  46.8072033  66.8672132  63.5286331
  46.6664743  67.3861265  62.1137476  44.6404982  56.2622499  47.3995447
  45.4172754  56.6656017  47.0120525  43.9047718  56.6871405  46.9586229
  26.0191631  45.7830191  46.7478848  26.9757628  45.7911205  46.7149830
  25.8105946  45.2627754  47.5238180  39.9792147  48.1013346  85.2289200
  39.8943901  49.0001965  84.9109840  40.9049511  47.8905725  85.1071548
  36.3744569  12.8983462  52.7930164  37.0880842  13.4709477  53.0742550
  35.6155515  13.1979358  53.2935572  35.3604293  21.6586542  74.1894579
  35.4083204  22.1382213  75.0164747  35.8344698  22.2087336  73.5658169
   4.1033351  64.9681044  58.0619383   5.0501966  64.8835278  58.1738853
   3.9699024  64.9313116  57.1147966  17.3135507  38.5990953  53.7157488
  16.7214227  39.0811110  54.2930508  16.8160391  38.4815335  52.9064941
  28.0433846  54.0298891  39.2902350  28.3127451  53.7383032  40.1612425
  28.8650870  54.2041826  38.8312602  26.2976480  39.4045854  46.1924362
  26.4608765  38.5035324  45.9137058  26.1269927  39.8796797  45.3791761
  17.7064455  38.8323593  66.4202404  18.5614467  38.4186053  66.5386200
  17.1094990  38.1039357  66.2491131  77.6514919   0.2015275   3.0397287
  76.8581684   0.5505819   2.6334882  77.8398044   0.8071298   3.7566793
  28.4944248  44.2748833  55.3718281  28.8919425  43.4758997  55.7180023
  28.3802676  44.1002750  54.4376373   0.8988281  14.1566265  45.1605225
   1.6908649  13.9547145  45.6586647   0.1830988  13.8307548  45.7062101
  61.3063431   6.4722902  21.7977715  61.0794783   5.5735594  21.5589261
  62.2605848   6.5045691  21.7298079 109.5945549  59.2844772  76.0355186
 109.1539574  59.9153042  75.4661655 109.5174980  58.4499073  75.5731487
  26.3261580  38.3031106  55.6448603  25.5688977  37.9466701  55.1803827
  26.5954375  39.0573573  55.1206160  55.7061005   6.9242805  87.1556759
  56.2974358   6.2580377  87.5059223  55.4881191   7.4715453  87.9101372
  13.7894237  82.8890896  64.9431610  12.9209876  82.9338646  64.5431042
  13.8351798  82.0097256  65.3184795  78.5689640  57.6406956   6.7123687
  78.1626701  57.5294733   7.5718957  79.5089626  57.6578283   6.8921918
  39.0695930  46.5393257  44.1712141  38.1695175  46.2146902  44.1977787
  39.6097779  45.7493305  44.1895676  27.0932174  48.0893993  65.3735352
  27.5265384  47.5250435  66.0138226  26.6380143  47.4831390  64.7891760
   6.3616967  55.6042385  41.9891119   5.4204166  55.7379055  41.8779516
   6.4342636  55.0407028  42.7594328   7.6629406  29.1364622  80.4962921
   7.1083122  29.8770666  80.2510929   8.2580918  29.0270567  79.7546339
 109.0662861  98.9019585  83.9044094 109.6565628  98.3787823  84.4467068
 108.1942177  98.5594463  84.1004467  98.3625221   4.8324367  13.3405828
  98.3717728   3.8803545  13.2421684  97.5752735   5.1137745  12.8743970
  43.3874130  46.8295765  75.0484228  44.0591288  46.9002533  74.3701649
  42.5890589  46.6017246  74.5720387  -0.0088041  57.0768404  71.5831280
  -0.0387304  57.7262974  72.2856569   0.0965292  56.2397051  72.0351744
  19.9483728  74.0559530  79.3459463  20.4886842  74.3345976  80.0853062
  19.7315943  73.1436443  79.5381069  10.1947796  30.7312632  42.7173471
   9.5456088  31.0842919  42.1089220  10.8297026  31.4390707  42.8274107
 106.6379261  50.1714468  73.9563322 107.0149708  49.9948692  74.8182392
 106.4640331  49.3048620  73.5888720   1.0079227  40.6262112  39.8317742
   0.8909023  39.6829820  39.7183871   1.3898115  40.9212637  39.0051341
  32.0109916  65.6820917  64.7527361  32.4708247  65.6551456  63.9136505
  32.2506523  66.5284777  65.1301241  14.7765982  46.2973309  61.2446308
  15.5079925  46.8266010  61.5627003  15.0550973  45.3928995  61.3884211
  52.5532055  76.8974924   3.4840491  52.0975780  76.6053438   2.6945677
  52.7333975  76.0918808   3.9685673  35.0341654  45.9577227  76.2560511
  35.8148646  46.4435005  76.5220547  34.8116279  45.4252481  77.0197105
   1.9464031  68.4539557  58.5901880   2.2769549  67.7211380  59.1097498
   1.3970134  68.9495468  59.1974688  17.8524661  21.5692401  51.6537428
  17.6994872  20.6245637  51.6333294  17.6299953  21.8670154  50.7716608
  43.9449930  97.9564476  14.8622119  43.9534807  97.5478363  15.7277727
  44.7512913  97.6520538  14.4457352  12.3316920  84.6048069  44.1610956
  12.9979837  85.2322865  43.8808155  12.0230889  84.2041302  43.3484125
  35.8689690  83.8447285  36.6277242  35.2981257  83.0771923  36.6632557
  36.0515642  83.9644814  35.6957650 102.4151516  61.4133978  49.2832518
 103.1521416  62.0136595  49.1702843 102.5041866  60.7869720  48.5649920
  22.1102142  54.3648434  62.2555304  22.9439354  54.0209627  61.9347715
  22.2186136  55.3156137  62.2327185  82.2698975  52.5580263  80.0725651
  82.5295067  51.7424583  79.6439791  83.0967712  52.9757547  80.3134441
 103.5273170  28.4869790  78.7675047 102.9475975  28.2759142  79.4993496
 103.0169106  29.0860701  78.2227039  37.5147843  32.7793813  66.8930244
  37.6916504  33.1736159  66.0389042  36.5625739  32.6858854  66.9211102
 104.9651432  69.1246271  55.4805851 105.5653763  68.5077715  55.8994341
 104.2630959  68.5758209  55.1310587   2.0797509  43.1833315  53.1420994
   2.1812984  42.2943878  53.4822416   2.9428500  43.4064484  52.7935171
  11.7609298  26.9653869  77.0286894  12.1465886  27.8252530  76.8609715
  11.9976759  26.4430904  76.2622786  29.0107203  96.8826199  69.5836592
  29.0050220  96.1460018  68.9724302  29.7516346  97.4202347  69.3039370
  44.5956421 100.7505608   0.3365713  44.0342474 100.0323105   0.0446889
  44.1062069 101.1630917   1.0482595  27.5551677  41.3658905  78.9805460
  28.2209754  41.9035339  79.4093418  27.8236461  41.3394594  78.0621481
 103.5767746  22.0027494  54.3240023 103.8894653  22.6648617  54.9404955
 102.9927063  22.4806118  53.7351465   5.4128546  34.3417549  66.4848375
   5.9583712  34.5115876  67.2528219   5.6728476  33.4673190  66.1950111
   8.4301990  45.5431223  38.6244392   8.8405526  45.3675365  39.4712043
   9.0468490  45.1919842  37.9820418  38.9452147  48.1756306  66.0860300
  38.4621596  48.6723900  65.4256344  38.2672167  47.7297783  66.5937376
   9.9512446  52.3071766  86.7180252   9.9351990  51.6115284  86.0607243
  10.5352914  51.9778156  87.4011421  10.0969350  93.5548878  80.7173157
  10.1345885  94.4329166  80.3379917   9.4526839  93.6257267  81.4216995
  23.1628799  58.7176466  81.5255070  22.8349066  57.8332186  81.3628674
  22.6979876  59.2655516  80.8931255  75.3646135  79.6186495   0.6132760
  75.1647806  80.2104187   1.3386059  75.8999443  80.1425171   0.0172785
  10.5821800  29.8808432  51.4933825   9.9690026  29.4320273  52.0754576
  10.1663339  30.7235265  51.3112068  36.1251664  48.9050055  74.5352268
  36.1368179  49.6014881  75.1917362  36.8094754  48.2982063  74.8176193
  60.9140635  93.3773613  80.5912304  61.5275812  92.7304077  80.2429962
  60.4619265  92.9210091  81.3008404  38.6600924  42.9860497  47.2342777
  38.6200690  42.0346403  47.3314857  38.9139676  43.3048344  48.1003904
  90.0348186  23.6337709  56.5540409  90.0483418  24.0876269  57.3966932
  90.0692368  22.7047038  56.7818165  23.8044977  35.6185937  76.6725016
  24.5065808  35.7078052  77.3169804  23.1040239  35.1661658  77.1424818
   8.4362590  47.9809904  61.8315744   7.4793530  48.0022144  61.8421650
   8.6565107  47.0556879  61.9390154  20.2576447  40.0064945  59.9388027
  20.9140611  39.8527145  60.6182861  19.9335670  39.1335845  59.7169161
 101.5552139  55.0920725  77.1173763 101.4110565  54.1926622  77.4115038
 101.7673397  55.0089455  76.1876869  96.5992928  47.4298191  49.2301273
  96.4704704  47.1309471  48.3299541  95.7584190  47.2694063  49.6584034
  31.6625333  55.9868813  60.8644772  32.0961809  55.9248114  60.0134039
  32.1920300  55.4387522  61.4436293  40.4146433  41.0066366  75.6644297
  40.2282095  40.4185438  76.3962936  40.3689432  40.4465961  74.8895121
   9.0442181  59.9096155  48.0896282   9.8116243  59.4502068  48.4306002
   8.9577085  59.5959997  47.1894073   4.3920049  28.7067771  83.2796478
   4.0561113  28.0473399  82.6725674   5.3345168  28.5432005  83.3134937
  60.4221201  75.6531858   9.9413705  59.9607372  74.8158598   9.8940247
  59.7700834  76.3013411   9.6749616  35.3982997  74.9511576  59.9536705
  35.7145429  75.2847338  59.1140556  34.7727990  75.6108809  60.2532339
  46.0471010  94.9506283   0.6608563  45.7310486  94.0863037   0.3976297
  46.6214323  94.7786140   1.4070377  46.0770464  32.9303026  60.0865650
  46.6655540  32.6663733  60.7938337  45.3525448  33.3716011  60.5299425
  69.1897106   8.6179656  48.6201763  69.6083546   8.5071272  47.7665472
  68.5174608   7.9371071  48.6474657  27.6085806  20.5221033  57.8151846
  28.4332442  20.5326200  57.3293352  27.5044131  21.4201379  58.1296921
   8.6933160  65.0352144  57.6386404   8.5483956  65.9780216  57.5589752
   8.1605244  64.6513081  56.9422340 107.5424576  11.2328696  58.5649347
 108.0728912  10.4748154  58.3195305 107.7770233  11.9061828  57.9262924
  10.5309963  42.7726555  83.3974743  10.4287398  42.0936203  84.0643215
  11.4450347  42.7022457  83.1221390  96.9534302  48.0077410  79.9368095
  96.0166168  47.8292131  80.0189400  97.0268345  48.5434008  79.1469288
  20.2496719  40.0044870  72.7807999  19.6195865  40.6476259  72.4558449
  21.0990024  40.4379749  72.6974201  17.4076843  71.6983223  51.9731283
  16.4605963  71.5641642  52.0085907  17.5445211  72.5505733  52.3868656
  55.0497055  26.1909986  89.3437576  54.6226883  25.3587747  89.1405582
  55.9519577  26.0763836  89.0453625  28.8495040  82.0476055  57.2300911
  28.5748386  81.2536812  57.6888609  28.2504392  82.7249908  57.5439501
  24.1515088  90.0525379  83.5111713  24.0881944  90.7994843  84.1063881
  23.2824039  89.9873257  83.1153965  52.0529556  95.3281021  21.0037827
  51.3046265  95.7010269  20.5377746  52.6892185  95.1310635  20.3163409
 109.9618244  20.2808332  50.6999111 110.6488037  19.9578798  51.2829876
 109.1881466  19.7683012  50.9343815  24.8032117  35.2977395  72.4116421
  25.3218079  34.9379468  71.6920328  25.3770638  35.2349544  73.1751776
  24.0879560  85.0704002  85.6550503  23.9451313  85.8144474  85.0700474
  24.7803712  84.5625973  85.2320385  28.0677032  87.7219200  50.8004379
  28.6092377  87.0039940  50.4724646  28.0759931  87.6130772  51.7513943
  36.9179440  90.7406139  35.3670120  36.2717295  90.7671833  36.0726523
  36.6640949  91.4550591  34.7827482   1.3514107  19.3497062  68.0602884
   1.4575587  18.6082566  67.4642897   1.1419325  20.0883818  67.4887037
  24.3070054  62.9543018  90.6257725  23.8889265  63.3762646  91.3763618
  24.6475577  63.6796761  90.1022339  73.8385582  40.1244068  16.1620450
  74.1925192  39.2627859  15.9416926  73.0105972  40.1725721  15.6841409
  35.2050614  34.7990680  59.5960331  35.7203531  34.5038843  58.8453150
  35.5149508  34.2620468  60.3252888  42.2485685  51.5854597  69.3828058
  42.0215702  51.8778944  70.2655172  41.5021229  51.0532808  69.1074276
   2.8217193  52.0212030  72.1536541   2.1432227  52.6232386  71.8479967
   3.4713492  52.5854349  72.5730038  16.1100101  13.8259661  51.5888834
  16.2366343  13.4849143  52.4742556  16.9752014  13.7673378  51.1836195
  36.4007473  66.5870619  57.8506517  35.8764505  67.0449638  58.5076714
  36.5531731  65.7204056  58.2273531   5.9561253  55.9622002  73.9591789
   5.8574134  55.7530260  74.8880148   6.9026017  55.9859705  73.8182926
  44.0968323  33.1509376  83.9947891  44.1770267  33.3535171  83.0627155
  43.1676865  32.9571152  84.1186905  37.8276491  31.5236378  62.7262449
  38.5156274  30.9006524  62.4921370  38.2876921  32.2282481  63.1824446
  91.4394379  98.6108494  87.1088314  92.2866249  98.9175034  86.7856121
  90.9310532  99.4104958  87.2442722  25.1919508  60.0710058  32.2755003
  24.9771142  59.2543840  32.7262759  24.4333315  60.6347990  32.4267173
  35.7722068  35.3113174  79.6692657  35.2128792  35.9984612  79.3070269
  35.1685524  34.6010947  79.8870182 100.1968384  33.3234930  49.5934105
 100.6037045  32.5362015  49.9551487 100.1367950  33.1518650  48.6536360
  17.6134467  35.8122110  62.9495716  17.2782648  36.6362977  62.5963545
  17.6349509  35.2204227  62.1975374   7.4003011  11.3475454   2.8274438
   6.5768468  11.1926484   2.3646678   7.1545088  11.8852603   3.5802248
 109.1437912  85.3244019  64.4738388 109.4045162  84.6601009  63.8359070
 109.7941971  86.0196877  64.3750095 109.2359447  40.1776505  54.0730000
 109.4347382  39.2624640  53.8751602 108.9441204  40.1677084  54.9845791
  17.0866191  75.1332617  42.0291233  17.7951527  74.4950438  41.9461441
  17.0209277  75.2972364  42.9698849  42.9770851  40.6325388  82.1133518
  43.1865215  39.9817896  81.4433575  43.5770845  40.4369450  82.8330612
  29.4531035  13.7974954  58.1758833  30.0709009  13.1799328  58.5672617
  29.4959784  14.5693517  58.7403584  39.7521210  30.6981349  72.0884275
  40.2629185  31.4952374  71.9471931  38.8483238  30.9580874  71.9100809
  24.2708731  30.8937502  63.1154871  23.4745073  30.9454465  63.6440325
  23.9572453  30.8710170  62.2114086  33.2936215  59.5611668  46.9927216
  34.1563082  59.8019123  47.3304319  33.1894684  60.0908804  46.2022877
  61.3448095  57.3094654  84.6943951  62.1306610  56.8404436  84.9749088
  61.6608381  58.1772089  84.4426441  40.2007818  46.1901188  57.6798487
  40.8245564  45.7414913  58.2507038  40.7269192  46.8401861  57.2142076
   5.1943135  36.4421391  70.1415539   4.8495734  37.2585702  70.5032539
   4.8687136  36.4225268  69.2416477   4.3740183  19.3165708  47.1185112
   5.1824760  18.8884246  47.4001503   4.5458096  20.2513218  47.2323561
  48.9999676  13.8529384  67.0706367  48.2853222  14.3073666  66.6245317
  48.8451290  14.0179646  68.0007076   6.0056353  40.0576830  64.2375040
   6.8693835  40.0918818  64.6485996   5.9239358  40.8954620  63.7817812
   2.7746624  72.7495098  56.1200190   2.5517291  71.8382883  56.3103008
   2.0484859  73.2550240  56.4851952  89.1578102  56.6356468  57.2800159
  88.7843609  56.0731459  57.9585123  89.3072987  56.0493326  56.5383196
  15.1543856  21.7380548  81.6498756  15.4335761  21.7129278  80.7346439
  14.3616581  22.2745061  81.6438198  44.5139599  52.1346140  84.2080975
  44.8332930  51.7568111  85.0275612  43.7170935  51.6419840  84.0117359
  29.2834139  33.9147878  74.3034792  29.7048473  33.1008911  74.5795155
  28.7017655  33.6532092  73.5896921  11.0865653  26.4761710   3.7378967
  12.0045781  26.2062144   3.7625670  11.0794306  27.3390293   4.1522107
  32.3101974  71.5261126  48.4126616  33.0353856  70.9671831  48.6918259
  31.8664598  71.0204649  47.7317429 110.9265518  41.7470455  49.9360895
 111.0513020  41.2153387  50.7221937 110.2123070  42.3432684  50.1610708
   8.3023369   1.8734388  10.1782513   8.9908040   1.3288528  10.5599189
   8.6019611   2.7716243  10.3186798 102.2917175  18.4457695  15.7809150
 102.8846931  18.4987259  15.0313795 102.6798248  17.7782989  16.3466740
  12.4593663  53.0761576  32.9000759  11.6834199  52.5596046  33.1175876
  12.4307048  53.1617737  31.9471431  68.3586264  85.7738781   6.8297452
  68.6198950  86.0402203   5.9482503  68.4941339  86.5550709   7.3660290
 101.1128235  32.5811434  80.2824974 101.6210175  33.3874822  80.1942253
 101.5756512  31.9453859  79.7367525   9.4367975  45.3289413  62.2875118
  10.2364874  45.1684523  61.7865419   9.7066903  45.2470255  63.2022095
  21.0644484  64.0425444  48.9521646  21.3268733  64.6853447  48.2932472
  21.8535137  63.5236216  49.1081333   4.6660146  58.4596109  79.4217730
   4.2059705  59.0559149  80.0125504   4.4233710  57.5854635  79.7270823
  34.1705537  62.4377632  56.4242506  34.3564558  63.3519650  56.2099838
  33.5247874  62.4835539  57.1293163  44.8134518  87.5298595  77.3832226
  45.7509041  87.5423527  77.1901798  44.7552776  87.7823925  78.3046770
  96.8751144   2.6708865  19.5561719  96.6774178   3.5957000  19.7040498
  97.7037811   2.5270560  20.0131679  48.2753992  62.4726295  60.7847500
  47.8963184  62.8746223  60.0031281  47.7936220  61.6522074  60.8897734
  36.7430139  61.5680170  56.3073015  35.8487439  61.8926954  56.4126348
  36.6408896  60.7221222  55.8711052  79.2597580  95.4252720   1.3509962
  79.9645853  95.0531960   0.8208885  79.1372967  94.7963238   2.0620951
 105.3933811  17.2077620  39.1737938 105.3643990  16.5018463  39.8196054
 105.9162045  17.8925824  39.5908189 101.5616226  48.6238813  52.5461102
 101.2414169  47.7959681  52.9042482 100.9688663  49.2848301  52.9039192
  45.5605221  54.8403358  51.4448690  45.2086258  54.0150118  51.7784119
  46.2658405  55.0629473  52.0524883  38.8493705  55.0753164  37.2484541
  38.6658525  54.6857119  36.3936067  38.8707542  54.3317986  37.8509140
  19.9097705  28.2428169  62.8030968  20.0460386  27.3998237  62.3706293
  19.8474491  28.0273247  63.7336397 108.6684608  64.7689915  82.4779892
 107.7460575  64.7949553  82.2236061 108.9026451  65.6856060  82.6236248
  38.1310964  63.4213305  70.3710222  37.4721909  63.8230419  70.9373331
  38.8679433  64.0320015  70.3903437  99.1820240  80.9230995  45.9886599
  98.9148903  81.0705853  45.0814009 100.1164627  80.7229996  45.9336948
  69.5083618   9.6246260  12.7068269  68.7219143   9.1958302  12.3693931
  69.3570948  10.5572975  12.5536132  39.4154072  62.3176384  88.7751579
  39.3948174  63.2449913  89.0114307  40.0492573  62.2667742  88.0597019
  74.1670895  97.5464535  15.4879940  74.5520115  98.4027672  15.3014886
  73.5241222  97.4159336  14.7910082  39.5198011  25.7833576  47.0259380
  40.1885223  26.0699272  46.4039040  39.9969053  25.2501297  47.6617622
  52.5153542  81.1106491  71.0180902  51.7770958  81.3285923  71.5870428
  52.9319334  81.9523907  70.8332443   7.4896616  84.8829174  53.9878273
   7.0938563  84.9536419  54.8564863   7.6032543  83.9422035  53.8522530
  22.8543305  48.1760645  88.9271927  22.6885891  48.9508963  88.3901691
  22.3204780  47.4892092  88.5278606  88.8173676  94.3561935   6.0449940
  89.6828747  94.3187618   5.6379038  88.6108780  93.4449482   6.2529236
  38.7148833  51.4049721  58.1205940  38.2388568  51.2615824  57.3026228
  38.0678225  51.7934656  58.7093353 108.1192017  77.3083401  72.0419598
 107.8559875  78.1109285  72.4922943 109.0513039  77.2173738  72.2398043
   5.7355350  89.8796463  89.6237564   6.5311611  90.4118156  89.6206284
   5.9756279  89.0927696  90.1130486 101.4964390  25.2473235   5.6802845
 101.4247704  24.4466352   6.1998963 100.5910397  25.5271149   5.5453479
  50.1425123  28.1973028  87.7945900  50.4864025  28.6590886  87.0299244
  49.6314287  27.4754357  87.4286270  55.0570154  84.3312740  44.0932894
  55.3629017  83.4508801  44.3113995  55.6229115  84.9138069  44.5998907
  26.5636635  61.5908432  46.7249441  27.3001742  61.3729572  46.1537075
  26.0226488  62.1832085  46.2027979  96.0075569  19.0094423   5.8514404
  96.1253452  18.6553681   6.7329103  95.1348209  18.7157953   5.5900174
  38.0456829  97.9803944  50.6705236  38.5930228  98.6873627  50.3286886
  37.1949983  98.1123543  50.2520037  21.4981151  81.3151550  60.6884384
  22.2597146  81.8485260  60.9158468  21.8504810  80.4332733  60.5685997
  33.5937691  57.1406937  75.5294466  33.5793090  56.6495275  76.3508940
  33.1441355  57.9608727  75.7328415  90.5178833  13.6424387   8.2067621
  90.8382034  14.3175983   8.8049179  89.7872162  14.0564358   7.7474642
  11.6963816  45.3481722  71.3819885  11.2071168  44.6861553  71.8704367
  11.2787390  45.3678322  70.5209303  92.9819965  29.1813779  28.2630014
  93.0949020  28.2671356  28.0029202  93.6363792  29.3180704  28.9480758
  36.7906356  33.4557700  39.6316934  37.0873427  32.5856709  39.3650007
  37.2390461  34.0550542  39.0350199  21.3637042  33.0724835  62.2297478
  21.7957115  33.2701302  63.0607319  21.4249802  32.1207190  62.1483755
  16.4558363  48.3697701  81.9857311  15.5358613  48.1927156  82.1820164
  16.6720223  47.7596188  81.2806034  10.7931101 105.0695419  52.1974564
  10.9926593 104.1852665  51.8900919  11.6454649 105.4435539  52.4206972
  12.2405946  25.7091331  62.5615549  12.2707045  26.5446782  62.0955181
  11.7690253  25.1221132  61.9705677  31.9045854  34.4944048  49.6459103
  31.7250419  35.4081297  49.8674965  32.8489780  34.3990970  49.7694874
  34.8769975  54.0884590  75.6525326  35.7120633  54.1634274  76.1143494
  35.1155543  54.0834522  74.7255516  71.0494041  78.3683395  50.6203747
  70.6043386  78.9137077  51.2690067  71.8379831  78.0603027  51.0670090
  30.0680900  61.2217093  77.9583597  30.2743649  61.3381243  78.8857937
  29.9090719  60.2824926  77.8644276  48.1459284  70.2696323   2.0617753
  48.1765461  71.2191200   1.9444317  48.8692904  69.9390268   1.5291595
   7.4426740  68.3435345  84.7827721   6.6055983  68.8005686  84.7012043
   7.2167408  67.4968338  85.1678467  70.5666399  76.2047338  61.2092686
  69.7983932  76.3881540  61.7499971  71.0760736  77.0147228  61.2343121
  37.4469137  80.7657814  91.0213947  36.8281984  80.0715256  91.2481689
  37.9941058  80.8629227  91.8007374  27.5038433  78.5275221  77.4911642
  28.3976412  78.6942196  77.7904463  27.4195027  79.0437174  76.6895008
  23.4804606  39.0959048  58.1927967  24.3959332  38.8704491  58.3580542
  23.3184910  39.8603344  58.7456512  10.0049460  79.9954653  61.0434723
   9.7438353  80.3772068  61.8815231  10.5346000  79.2345285  61.2815428
  45.6758165  68.2483435  67.0276070  46.1861610  67.5243664  66.6647911
  45.3173304  67.9026508  67.8450537  34.0569711  98.2915497  70.1068640
  33.7253714  97.8728294  69.3125391  34.5121193  97.5913334  70.5745888
  23.6811924  61.3450432  34.3793678  23.2516432  62.1789598  34.1888475
  24.1686559  61.5057993  35.1873088  46.2956858  95.5452824  85.4892540
  45.6467342  94.8971272  85.2154064  46.8872833  95.6229115  84.7407722
  51.8990707  84.4445324  47.6830196  52.3019838  83.5773945  47.7273178
  52.2952318  84.9299622  48.4066534  71.1293268  99.1382313   7.0901477
  70.3517723  99.1035557   7.6473176  70.8848906  99.7244549   6.3740349
  50.4027939  73.9261293  62.3894215  50.9225798  74.7104692  62.5651121
  49.7699881  74.2017460  61.7262316  58.1545019  79.9243498   1.1796486
  58.2522631  80.6051350   1.8453844  57.2089958  79.7936440   1.1077863
  49.0255785  62.7123690  57.4328852  49.7693300  62.1413136  57.2406387
  48.4757900  62.6610041  56.6510153  35.0320983  56.3952732  46.7316198
  35.2129054  56.1396837  47.6361704  35.7433319  56.9945860  46.5053415
  17.0998609  73.8839197  53.5086250  16.3957858  74.1722822  54.0894508
  17.6585531  74.6546793  53.4084988  16.2561107  51.0110521   1.9582875
  16.7824519  51.3178396   2.6965827  15.3547847  51.2202501   2.2033992
  18.1983030  57.2401190  36.4254236  18.0521023  58.1846189  36.3727379
  19.1476738  57.1488714  36.5066767   9.7146779  41.8671322  69.5108747
   8.9407754  42.0638704  70.0387001   9.9107277  42.6874352  69.0582228
  39.3204594  70.5830622  61.3748884  39.0472078  70.9475088  60.5330181
  40.2457333  70.8170176  61.4481688  24.6406102  76.5878868  21.1665630
  25.3544354  76.0525322  21.5130901  24.6074724  76.3691378  20.2352834
  30.0677943  59.3950605  57.2576380  29.6231174  58.5802937  57.4914122
  29.8441958  59.5344400  56.3374138  36.6602445  75.1976109  71.9270182
  37.3519373  74.6784496  72.3372221  37.0419002  76.0698938  71.8285418
  77.6758432   4.0438506  77.5299454  77.3466206   4.7757998  78.0515718
  76.9249773   3.7672317  77.0046759  53.2811832  47.8951979  75.0298262
  54.0730095  48.1146193  75.5208445  53.4827995  48.1423616  74.1273355
  37.5246382  61.0051584  87.4274921  37.1900392  60.2756548  87.9491329
  38.2786965  61.3268709  87.9215908 102.6514339  31.1363745  19.0208757
 102.2107124  30.6895924  18.2981145 101.9394112  31.4961576  19.5498478
  42.4961376  28.8638806  83.6112022  42.0434380  28.4000301  82.9068375
  41.8328238  28.9700222  84.2930984  25.4882312  68.7374640  83.2556152
  25.2348495  68.0484867  82.6413345  26.0817695  68.3047247  83.8693619
  11.6625750  73.9523363  60.4038811  10.9328437  74.5710421  60.3734303
  12.2670937  74.2615843  59.7292280  39.6399593  73.0188751  70.7241488
  39.9222803  73.9231443  70.8613491  39.1751194  72.7884245  71.5285444
  97.5713158  48.1195736  63.2181501  96.6280746  48.1207514  63.3810425
  97.6512241  47.9808855  62.2744322  42.6093245  88.2285595  52.2472239
  42.2827768  88.1011581  51.3565111  42.6540899  89.1789246  52.3522758
  28.0222178  95.0720119  52.7037334  27.6963234  95.8393574  52.2334099
  28.3393312  94.4864655  52.0161200  75.5342531  91.7559433   2.9955858
  75.6850004  91.4170456   2.1131739  76.2838554  92.3268223   3.1642056
   0.2107143  19.2691934   1.6033053   0.7795711  20.0382733   1.5693825
  -0.0207992  19.1831267   2.5280896  17.2083986  94.5088387  65.6349516
  17.2817719  95.3638554  65.2109289  17.3502588  94.6893692  66.5642071
  81.2600994  18.9904356   9.3406934  82.1688652  18.6913943   9.3715709
  80.7514858  18.1951225   9.1825062  64.8026705  85.8734226  56.4739513
  65.1114941  86.7419243  56.7319345  63.8543653  85.9719372  56.3888073
 106.9898129   9.8376846   7.3821557 107.5897884   9.1649908   7.7042502
 107.5288868  10.3866053   6.8126595  39.5271492  79.2471552  68.1102514
  38.9053154  79.4557619  68.8074160  39.1383362  79.6251869  67.3214865
  35.0664091  70.5969906  83.6117268  35.6683087  71.0405779  84.2093754
  34.2065215  70.9592485  83.8252544   5.6782544  44.6238279  72.7977753
   4.8862225  44.9973965  72.4112988   6.3357568  45.3139925  72.7106333
  27.6504540  76.0202122  66.6299963  28.5694289  75.9661245  66.3677073
  27.1742344  76.1469936  65.8094025   8.6385769  43.2979536  60.0933933
   8.3571732  44.2122126  60.1276207   9.5890492  43.3436251  59.9897194
  49.9205160  95.4236031  60.8203363  49.8352766  96.1209679  61.4704466
  50.8576918  95.3878975  60.6288671  34.2017245  57.7295589  59.8170614
  33.4642076  58.2513428  59.5007706  34.6040034  57.3774815  59.0230560
  52.2178555  75.8722305  59.6948290  51.3352442  75.5065823  59.7542334
  52.3813248  76.2453556  60.5610228  20.2655554  57.5477600  90.4216862
  19.6353400  57.0547009  89.8963737  20.9849405  57.7355480  89.8188114
 106.3982296  58.5712719  42.0883465 107.0301342  59.2734241  42.2429943
 106.6487598  57.8834629  42.7051020  73.7655067  10.5688405  61.5919495
  74.2564058  10.9372962  62.3264503  74.3358421   9.8843843  61.2419891
  24.4620943  52.6367426  62.0420742  23.9773941  51.8352032  62.2391367
  25.3825235  52.3822165  62.1073294 107.6137924  16.4117408  18.3785987
 108.1438828  16.8265724  17.6980460 108.2501507  15.9760022  18.9455318
  30.2884197  86.0270882  55.1736021  29.4636655  85.7817650  54.7542810
  30.2126336  85.6903648  56.0664082  45.1592112  51.0305691  80.7244968
  45.4870081  50.4996967  79.9985838  44.7154999  51.7660475  80.3020954
  11.8639696 101.9552135  54.1836023  11.0139275 101.5370560  54.0464926
  12.0082939 102.4703503  53.3898544  49.2833090  78.3468676  77.7962589
  49.5399714  77.8205395  78.5534477  48.5582638  77.8618908  77.4021339
  20.6247592   8.1068832  42.2234249  19.7785187   7.7424258  42.4828053
  21.1333418   8.1318945  43.0339479  42.7642059  81.3995266  46.5447092
  41.9361734  81.7008305  46.1707973  43.4342337  81.7565727  45.9617710
  46.0186911  84.6775818  66.3365555  45.6796980  84.6510792  65.4417849
  46.2157965  85.6014919  66.4907360 110.9770393  62.7929020  50.3302193
 111.1172104  63.5192299  50.9377003 110.8370495  63.2137299  49.4819641
  83.9895535  48.5335827   0.3848546  84.2001152  49.1886044  -0.2806109
  84.0734482  47.6951838  -0.0693250   6.2259394  73.8409042  64.8516321
   6.1052370  74.6196795  65.3949356   6.9302416  74.0768766  64.2478848
  40.0700235  95.0226307  43.2526779  40.6536674  94.5181465  43.8193274
  39.4280100  95.4057217  43.8504219   7.9395527  56.2350941  68.2480526
   8.6779487  56.6959095  68.6463690   7.6810956  56.7886639  67.5111723
   2.8347930  56.2281036  76.1343718   3.6638424  55.7513380  76.0943413
   2.8439683  56.7899847  75.3594971  62.1866131  85.5953598  74.1792774
  62.3259878  86.4768314  74.5254230  61.5739393  85.7169724  73.4539652
  32.1534538  84.0952969  49.7605181  32.5256586  83.5197830  50.4287100
  32.8120303  84.7793484  49.6397400  34.5205045  72.5590611  67.1616030
  33.7905383  72.5622797  67.7807713  35.2713633  72.8571653  67.6749992
  22.8039503  80.6967640  52.2271299  22.9009151  79.8836088  52.7227163
  23.6804652  81.0814095  52.2241449  31.5666246  59.0160322  49.0237761
  32.1774578  59.0469885  48.2874584  32.1187496  59.1266680  49.7978210
  36.2838578  94.3852806  77.0699120  36.5087795  94.2466068  77.9899168
  35.7565093  93.6219025  76.8345737   6.6539794  91.9801903  61.8899393
   6.5370548  92.1972847  60.9650469   7.5721061  92.1829033  62.0693302
  40.7284737  46.1436844  67.2778797  40.1708460  46.5868044  66.6384029
  41.4643717  46.7415953  67.4090004  53.0543184  70.8953190  68.0106735
  52.2798109  71.2882376  68.4131432  53.3697557  71.5603924  67.3987770
 104.6005821  66.3317680  80.3458977 104.2379856  67.0534945  80.8595657
 104.8848915  66.7392492  79.5277500  19.5507896  84.1847706  69.4294453
  18.8413620  84.5582867  69.9523497  19.7704673  83.3659840  69.8739195
  10.1292145  44.0720272  44.8515415   9.7121698  44.8860741  44.5693493
   9.5362318  43.3828354  44.5521832  79.6990871  69.5340157  51.6021061
  80.3273773  70.2089071  51.8590164  78.8464117  69.9645185  51.6640949
  18.9694023  62.8592873  84.3028641  19.5089424  62.3455667  84.9038792
  18.2706916  63.2145071  84.8522758  41.1977291  41.6888905  60.2574158
  41.1052990  41.7372036  61.2089157  40.9792757  40.7823610  60.0412750
  34.6840549  47.1446753  61.3119125  34.0336132  47.4505568  61.9440460
  35.3824806  47.7980137  61.3517475   2.2986567  78.9732647  66.0493946
   1.9451199  79.5623255  65.3828716   1.5266219  78.5709047  66.4472675
  45.4489613  31.2319231  48.4310579  44.6759462  30.9487295  48.9194059
  46.0976553  31.4336348  49.1054010  30.5993295  38.3437133  76.0507154
  31.3181353  37.7121949  76.0777903  30.8130431  38.9792848  76.7337990
  89.0848827   5.1045734   2.5522581  88.3304501   5.4938656   2.9944235
  89.6647358   5.8444458   2.3717219  22.0054746  36.5637136  87.6998234
  22.4463987  36.1531806  88.4436512  22.5772524  37.2909641  87.4540424
  19.8140824  57.5146437  81.4743519  20.7368040  57.2776556  81.3813400
  19.5075488  57.6409531  80.5764008   2.5058618  88.2994747  78.2628775
   1.8738630  88.6360645  78.8981104   2.1338703  88.5276890  77.4109507
  17.6828682  55.8177137  33.9119077  17.1759486  56.3047981  33.2622814
  17.9487669  56.4776993  34.5521808  47.7577496  32.5498557  57.8115654
  48.5314465  32.1045423  58.1570005  47.3220158  32.9076695  58.5850859
  45.9806967  59.1352081  49.7820091  45.5553055  58.2909250  49.9318743
  46.9029427  58.9780188  49.9844551  32.7344751  32.8023100  84.1326332
  32.4140692  32.7945447  85.0345802  33.5676336  33.2713294  84.1784573
  19.3481994  87.8640175  60.6738615  19.8202169  88.6806583  60.5110073
  19.2856181  87.4479961  59.8140717  36.8876719  65.3474760  48.5532331
  36.8650270  66.1299944  48.0024290  36.0017991  65.2795553  48.9093924
  10.8965898  98.4847260  69.7224426  11.0082531  98.5185909  70.6725025
  11.6503775  97.9840755  69.4103813  47.1825886  65.6990242  40.1531887
  47.7194023  65.7938623  40.9399986  46.9515324  64.7703886  40.1313829
  41.9493532  66.0859919  63.1132603  42.4419880  65.8023262  63.8833761
  42.6206112  66.3112831  62.4691486 110.5710888  75.9327269  68.7217283
 111.0482407  75.1418591  68.9728928 111.2339306  76.4953709  68.3213425
  14.7500324  44.0742111  89.0446949  14.4756925  43.6704588  89.8680687
  14.0422928  43.8738155  88.4321785  45.2091551  27.2627234  60.0092077
  44.8052645  27.0726514  59.1624641  45.3530121  28.2089949  59.9989319
  64.3400431  54.6117973  22.9287505  64.8268890  55.3938437  22.6687217
  64.6520233  54.4183588  23.8127661  27.0293307  70.6188583  67.0283127
  27.1935749  71.3339663  66.4136028  27.6392412  69.9303722  66.7633009
  41.7516041  82.7177715  69.3238449  42.4372339  83.2494831  68.9195824
  41.1012030  82.5990105  68.6316681  61.1479902  67.0874166  56.1806536
  60.5595636  66.7317152  56.8465853  61.0861492  68.0364895  56.2886715
  45.6045675  84.3247032  55.5073023  44.8501778  84.4859695  56.0739756
  46.2424946  83.8923073  56.0750294 107.2564602  46.5915060  35.5181456
 107.8033066  47.3590612  35.3506517 107.6382446  45.9022236  34.9746704
  50.4980803  96.1036396  83.5270214  50.4805803  96.3938522  82.6150513
  51.2046671  95.4587460  83.5596371  32.7017474  80.6691551  78.3004808
  32.7643013  80.5939484  77.3482943  33.0712128  79.8500109  78.6302233
  38.8362193  80.6065178  57.2313356  38.5405254  79.7458744  57.5281239
  39.4448471  80.4175091  56.5171385  36.2215710  44.7263336  72.3353052
  35.9695196  44.4003105  71.4713573  37.1168375  45.0445938  72.2193813
  12.6651764  30.4049754  80.3521347  12.2338629  30.4303813  81.2062740
  12.9390514  31.3086224  80.1951408   8.0638152  43.8107872  48.8040447
   7.5793934  43.0603361  48.4599733   7.5463784  44.5714712  48.5397482
   6.1459106  86.0860443  76.3488436   6.2670368  87.0345497  76.3924456
   5.2420646  85.9467697  76.6315031 106.6402149  39.6038342  78.7321281
 106.4325047  39.3141770  77.8437662 106.9008350  38.8045931  79.1898632
  36.6028786  69.9500942  47.6196766  36.0600448  69.9062777  46.8325043
  37.1700382  69.1811275  47.5626135   1.0733908  41.4858723  65.0437117
   1.0940580  40.5656052  64.7812080   1.6082938  41.9339180  64.3884516
  96.9116497  23.1467795   1.7549360  97.4578381  22.5140953   2.2214343
  97.1617031  23.9950538   2.1211821 105.2316284  18.4122765  78.4175301
 104.5584106  17.9629338  77.9065514 104.7804737  19.1660047  78.7977839
  24.9718690  83.4372902  74.0277576  25.0869584  84.3144226  74.3932962
  25.3996730  82.8572655  74.6576691   5.3471756  17.1199477   4.2956942
   5.5223686  16.6307139   3.4918350   5.5398285  16.5007269   4.9997422
  35.3039479  60.9860849  34.9966574  35.2152658  60.3098154  35.6682396
  36.1517549  61.3924503  35.1764369   5.1526678  48.8244772  24.2071533
   4.1974673  48.7791491  24.1650915   5.3323108  49.5893574  24.7538805
  32.9134893 105.0455761  39.1583443  32.5122762 105.7309246  39.6927142
  32.1807981 104.6507454  38.6855817  38.3901620  94.5640564  21.2754464
  37.5608706  94.3009281  21.6745329  38.9846921  94.6846008  22.0158744
  11.9949722  63.6894512  52.9682064  11.2503409  64.2524433  53.1798506
  12.0850492  63.1154156  53.7288618  75.5148458  13.0860090  23.7373805
  76.1229992  13.3642972  24.4221711  74.7366238  13.6262786  23.8741636
  39.9391985  59.0660381  40.5876684  40.2558661  58.5703516  39.8325229
  39.5199251  58.4108639  41.1455107  20.4140472  80.2282906  66.0262728
  21.3404536  80.1735115  65.7917452  19.9819148  79.6048450  65.4424858
  30.8753800  81.6941643  80.7590580  30.9014773  81.6322422  79.8042154
  30.1774621  82.3239899  80.9392357   2.9699972  36.4839292  86.9134808
   2.6047376  35.8665514  87.5472450   3.8614997  36.6450572  87.2224998
  38.7134051  62.9518747  48.6611891  39.6137142  63.0758619  48.3606815
  38.2131791  63.6282158  48.2044935  30.5307460  53.0527306  43.6238003
  29.9780607  53.3518076  44.3458271  31.4251828  53.1509733  43.9502382
  11.5458715  52.3556900  82.2060108  11.9406211  52.6209831  83.0366898
  12.2136426  51.8137407  81.7857742  26.7874336  97.5391865  71.3797426
  27.5386214  97.2534275  70.8598423  26.8872356  97.0833111  72.2154760
  72.0956850  70.4224062  82.9058933  72.1333981  69.9699068  83.7485409
  72.2743511  71.3385963  83.1178188   8.8632780  52.3522472  30.9580874
   7.9146421  52.3965836  30.8382702   9.2184371  52.3793888  30.0696278
   1.9375716  55.1291990  18.2482386   1.5654702  55.9079885  18.6620796
   2.1280643  54.5385742  18.9770067  15.0773871  75.0658274  78.3069706
  15.0032818  74.3064022  78.8849115  15.0735915  75.8183098  78.8985634
  44.8174715  86.3993359  43.3315229  43.8744402  86.5204716  43.2208538
  44.9583149  85.4647636  43.1799746  17.8163195  70.2629423  91.4571285
  18.6395204  70.1130486  90.9922600  18.0051208  70.9902191  92.0501328
  42.6657104 100.4026985  68.8424492  42.3878336 100.5309200  67.9354906
  43.5115433 100.8472252  68.8989210  25.3503776 103.8149357  61.9180775
  26.2295794 103.4633923  61.7778587  25.3017306 103.9691162  62.8615236
  17.7204025  75.4907513  21.5901041  17.0284474  74.8465014  21.4405227
  18.2618284  75.4480934  20.8018970  60.8196783  67.6473188  60.3296185
  60.1325893  68.0173111  59.7753191  61.2730217  67.0221901  59.7640038
  52.2769642  52.9585361  61.3673544  52.4184990  52.4970388  60.5407810
  51.9278479  53.8114500  61.1087370  12.0969367  60.7110739  25.0335407
  12.7030146  61.3108969  24.5986724  11.2762082  61.2002230  25.0915813
  37.4980521  53.5519743  48.1081820  37.9778743  54.3669367  47.9604101
  37.9490995  53.1385756  48.8443089  46.5224648  94.6626186  62.7112246
  46.9848633  94.0881538  62.1009588  45.6197405  94.6730423  62.3930883
  75.7584143   0.4199012  62.0117617  75.1829720   1.1817994  62.0796251
  76.2233400   0.3956431  62.8481150 104.4271660   7.6801389  63.5236740
 104.1137886   6.8631399  63.1356859 104.7078991   7.4344468  64.4051790
  12.0741737  56.6829252   7.9702258  11.7728901  57.3925829   8.5375386
  11.5553021  56.7780876   7.1715093   1.0099076  19.1581917  76.2995434
   0.3207220  19.1342485  75.6357050   0.6289022  19.6566272  77.0224714
  46.5833330  83.0899429  58.9889193  46.4936733  83.9980698  58.6999369
  46.3669682  83.1127548  59.9210644  45.4770708  47.4368620  69.6790981
  45.4458475  48.3705139  69.4704056  44.5786142  47.2161579  69.9246645
  31.0824251  86.5157700  84.5378113  30.1856995  86.6103363  84.2166042
  31.6309881  86.7350388  83.7846565  52.8922462  90.3792191  79.5476198
  53.8146782  90.1262760  79.5847654  52.5154400  90.0300217  80.3552818
  18.0646205  89.0900898  66.2288141  18.9120138  89.1052818  66.6737032
  18.2603550  89.3596935  65.3314686  20.5135822  67.1304846  62.8471851
  20.8157492  66.4449596  62.2513771  21.0667253  67.8849173  62.6444626
  47.1496773  81.2262821  67.6200581  47.0210600  80.4056072  68.0956411
  46.2660503  81.5735912  67.4983597   1.0619336  46.7784786   4.7614151
   0.4013244  46.0994291   4.6245968   0.7132620  47.3113060   5.4760855
  27.3707128 101.4152241  49.2422867  27.3181677 100.4677391  49.3677664
  27.0918894 101.5527725  48.3369875  60.8408070  94.9767971  59.2780161
  61.6776180  94.9573421  59.7423410  60.1834631  94.8607635  59.9640656
  65.4489279  83.4957218  51.4315510  66.0341215  83.7882900  50.7328463
  65.7623720  83.9511871  52.2129154 111.9563389  31.4966941  10.6603968
 112.0513535  32.0582056  11.4297533 112.7923870  31.5762305  10.2011132
  69.2368317  80.4969788  60.2297878  69.0382290  80.9559917  59.4136429
  70.1429796  80.7360554  60.4246521   9.9693060  84.9725246  60.7195425
   9.3824261  84.2584324  60.9683084   9.4423473  85.7642841  60.8275270
  40.2450228  92.2020435  58.2144117  39.6301913  91.4760017  58.1091452
  39.7003531  92.9389286  58.4911203  41.0838842  92.6566410  53.9143753
  41.6300535  92.5007820  53.1438971  40.3931665  91.9965649  53.8558292
  93.8407803  90.3572559  78.7562418  93.2353401  91.0914230  78.6528969
  93.9534092  90.0131321  77.8701687  23.1148076  79.2424202  44.9052382
  23.7283564  79.1590834  45.6351995  23.5159230  79.8923397  44.3282223
 101.0350513  40.6881094   0.2590661 101.8615341  40.2886963  -0.0122731
 101.2039566  41.0101032   1.1445155  26.8634439 100.5346966  55.5072641
  27.4429035 101.2473869  55.7765961  27.2683191  99.7467804  55.8698845
  77.7655880 106.3222124  69.3883848  78.4140752 106.2302205  70.0864077
  77.4000117 105.4437770  69.2838097  33.8045454  38.1610703   3.0468965
  33.7714767  38.8838983   2.4202716  32.9093146  38.0901599   3.3782071
  56.3184547  92.2158337  69.7626209  55.3681469  92.1014500  69.7707748
  56.5872622  91.9247341  68.8912773  64.2872810  81.3541889  81.0855103
  63.9766359  81.3745880  80.1803493  64.6061516  80.4601765  81.2092113
  19.5936656  61.3825274  49.1939020  20.0420165  62.2216225  49.0883589
  19.7994637  61.1118889  50.0886822  58.6438894  57.7122641  57.8056765
  59.0410089  56.8837452  57.5371838  59.2278671  58.3833742  57.4523926
  60.5106497  68.5042524  73.2982874  61.4573240  68.6455059  73.2887173
  60.2599573  68.6233950  74.2143583  10.6232405  26.6853929   7.3332399
   9.7750866  26.9580936   6.9832361  10.5100346  26.7120361   8.2833487
  11.8004417  72.6127911  18.4820068  11.4422631  73.1560755  17.7800226
  11.9090092  73.2142496  19.2186844  84.3418121  85.4479218  66.9464016
  84.7862530  85.5939579  66.1113071  85.0411224  85.4821873  67.5991058
  37.2462440  13.9177763  44.3822289  38.0508924  14.3974984  44.5788002
  36.7818737  13.8762224  45.2182102  11.4955223  95.3776073  49.3039370
  12.0711946  94.6147823  49.2498064  12.0882905  96.1282063  49.2656708
  60.7690859  87.0566845  60.6109762  60.0888014  87.2538090  61.2548685
  61.5410233  87.5264454  60.9266806  57.0410538  85.8625889  90.1770973
  56.9112921  86.2234402  91.0541248  56.5722227  85.0281620  90.1896477
 105.5109596  13.1171679  71.4069986 104.7125626  13.3777726  71.8662167
 105.2002716  12.6271772  70.6456709  86.6279030 100.5703926  50.7990599
  87.2236347 101.3007259  50.6318998  85.8684158 100.7490635  50.2445412
  15.2746081  80.7826233  62.6706219  15.7328534  81.0928059  63.4516668
  15.5196118  81.4052105  61.9860935  96.1322784  14.2169476  20.6382418
  96.5781784  13.3877158  20.8108020  96.8407249  14.8456407  20.5001450
  29.3077660  73.8202381  78.1397724  29.1482306  73.3764935  78.9727592
  28.4380817  73.9253902  77.7539968  44.3637419  89.0990829  48.0468512
  43.9402533  89.8705196  47.6703119  45.1420736  88.9651871  47.5060129
  37.4814105  88.0887604  64.4694710  36.9347763  88.7439537  64.0357208
  36.8609834  87.5350285  64.9434900  29.9162602  60.0933695  29.6190429
  29.0539718  59.8677492  29.2700624  29.8563361  59.8935461  30.5532336
  46.0823870 103.9636421  81.5606689  46.5278816 103.2042217  81.1851120
  46.5122890 104.7174740  81.1567402  22.5453687 100.1437092  69.8382187
  21.9762564  99.5018482  69.4135332  23.4218407  99.7637367  69.7778034
  44.7873878  66.8038559  59.2858267  44.4564342  67.4717903  58.6853552
  44.0420914  66.2207174  59.4297457  15.9647727  69.2426777  89.7736454
  15.2707827  69.3427992  90.4252434  16.6946602  69.7558165  90.1203251
  38.2409477  10.5325425  12.1800876  37.5507975  10.5647874  12.8425705
  38.8239479  11.2572932  12.4060965  54.5096254  69.3893957  71.4782476
  55.2932596  69.7477341  71.0614204  54.1310453  68.8091946  70.8177376
  35.6478810  79.0222025  83.7792492  36.2670326  78.4212732  83.3647919
  36.1719584  79.7926855  83.9981747  66.8812132  88.4681129  49.1912889
  66.8401146  87.6259899  48.7381077  66.7265368  89.1172218  48.5050154
  14.2431557  56.1448669  87.7241230  13.7688363  55.3273582  87.5726891
  14.3849051  56.1677647  88.6704922  75.7713556 100.5452061  60.9939861
  75.5767250 101.3855171  60.5789804  76.4886045 100.7368946  61.5981722
 111.8320560  42.3980474  31.1072922 112.6132488  42.8934431  30.8612466
 112.1408844  41.7749310  31.7650056  30.7118058  77.7928495  61.2621355
  30.2435780  77.7724171  60.4275227  30.7200074  76.8814421  61.5545368
  55.7221413  70.8124065  74.3427324  56.3884068  70.3686476  74.8675156
  55.5974579  70.2435064  73.5830975  58.7386370  73.3393621  51.0956955
  59.3303585  74.0811920  51.2213564  58.4088278  73.1447840  51.9729614
  27.2783756  38.6871696   6.6853303  27.0809507  38.7266922   5.7495451
  27.1293139  37.7720380   6.9231218  40.1839304  87.4566555  61.1603689
  40.3663731  87.1021271  60.2901697  39.9158430  88.3612823  60.9990644
   9.0746605  61.9524479  12.0246840   8.8365138  61.5693951  11.1804175
   9.9632972  62.2838068  11.8952286  49.7898340  83.3524323  43.9308739
  50.6465054  83.4308529  44.3506289  49.9767447  83.4043026  42.9935360
  45.3163815  94.6674156  65.9702253  45.4620266  94.9130917  65.0566244
  45.2831554  93.7108707  65.9586477   7.5708270  95.0928783  67.7569342
   8.1105405  95.7768917  68.1532526   6.6726851  95.3365898  67.9809380
  36.8890047  90.4262447  72.4036217  37.4719191  90.3265095  71.6509628
  37.2771072  91.1364746  72.9146814  16.0186350  82.2955513  79.9022388
  16.4330304  83.1371498  79.7119188  15.1684463  82.3428917  79.4650126
  21.1012411  92.9538441  86.0253239  21.8629313  92.3943233  86.1769676
  21.3787413  93.8212299  86.3200474  82.0166874  30.1697373   2.2394834
  81.7257309  30.8554387   1.6383287  81.9344807  29.3595195   1.7364715
  23.6843657  71.9665575  82.5104046  23.0695224  72.6974821  82.5732136
  24.1192508  71.9454670  83.3628559   8.0042052  92.3836899  82.7736568
   7.5804889  92.9208660  82.1042252   8.0510938  91.5100288  82.3853874
  58.5024214  78.1098413  87.6008320  58.2817936  78.7916422  86.9662380
  59.4389725  78.2257605  87.7610397  94.5953465   4.9284372  60.0043392
  94.5526695   5.5501032  60.7309341  95.2643871   4.2968833  60.2684546
  54.7111511  85.8318520  51.9977236  55.5282640  85.3396893  51.9180918
  54.1300392  85.4381847  51.3469028  30.1670766  96.9755840  72.3581076
  30.0893903  97.3600578  71.4849710  30.3167987  97.7233410  72.9366255
  59.0624046  95.8374977  61.5788078  58.1723022  96.1892700  61.5930891
  59.6150351  96.5923309  61.3761663  56.1319494   8.4125835  62.0318079
  55.4404116   8.9884818  62.3579168  55.8113956   8.1108773  61.1818361
  20.6511378  77.1956491  37.0396280  19.7163749  77.3328924  36.8859577
  20.7157350  77.0152140  37.9774451  54.9965668  79.4789124  68.5082388
  55.8387899  79.4071436  68.0590820  54.4784546  80.0624371  67.9539013
 102.7139282  17.0059311  80.8350468 103.0137730  17.2874773  81.6993618
 103.4485245  17.1982777  80.2522945  29.6022797  53.4189558  21.0473657
  29.1707921  54.1938114  20.6872988  30.5278277  53.5399628  20.8353591
  47.4048424  98.0715466  86.4556122  47.5212812  97.4558830  87.1792316
  48.1223774  97.8726387  85.8541012  51.5536451  71.3997269  59.4264221
  50.6119585  71.4644098  59.5853949  51.8466425  70.6965303  60.0059843
  31.4900064  43.9764452  29.4696760  31.2617803  43.1699610  29.0073657
  31.8545771  43.6795855  30.3034616  18.2299519  71.6178322  34.6159935
  17.8593004  71.5087414  33.7402368  18.5266030  72.5276136  34.6389008
  33.3670735 102.0985413  55.0283051  33.6267161 102.5828934  54.2445850
  34.1236806 102.1626472  55.6111145   2.8767139 103.5922241  44.9495745
   3.6727071 103.7040901  45.4692936   2.8573883 104.3564510  44.3735456
  41.4761400  93.3722115  60.5264568  41.4291906  92.9579544  59.6648169
  41.3484097  94.3045330  60.3512478  48.9981747  94.9765873  67.8126907
  49.2461920  94.7808075  66.9091463  48.5258150  95.8072376  67.7567863
  17.6898715  37.7342527   0.3167328  18.2401178  37.5370710  -0.4412762
  17.5345370  36.8838136   0.7276615  27.2069573  70.7011127  63.4821987
  26.9293404  69.9078894  63.9404058  27.0706153  71.4045048  64.1169310
  70.1045561  77.0815945  78.4085703  70.7443953  77.1181917  79.1195536
  70.4131269  76.3721275  77.8449440   1.8899588  54.0848064   1.6703020
   2.3804373  54.7995043   1.2642621   1.2138776  53.8640451   1.0296699
  54.7359037  89.7636318  89.0310287  54.5438910  90.3592491  88.3067417
  55.6485844  89.9454117  89.2550850  44.4941473  75.4728699  65.3949451
  43.9772511  74.6959877  65.1816177  45.2103138  75.4658556  64.7598982
  63.3047867  99.0850449  84.3568802  63.1986380  98.8935089  83.4250641
  63.4517241  98.2302856  84.7618771  88.8617039  25.5330157  24.3841410
  88.2791519  24.9216127  24.8347521  88.2721710  26.1465025  23.9456058
  61.4389133  67.0966387  65.7550669  61.3555336  66.2023544  66.0860252
  62.2329569  67.0812273  65.2207565  66.7536736  84.2857075  57.8272390
  66.7879009  84.7626114  58.6564732  66.1884212  84.8183632  57.2677708
 111.7976475  43.4294462  53.1148243 111.7586708  42.9316092  53.9314461
 112.6744747  43.2578993  52.7713537  17.8248358  75.5244541  88.5592937
  16.9125307  75.2761173  88.4100914  18.2639861  74.7026634  88.7784767
  41.9843912  74.6392536  75.7107639  41.3919592  74.9562263  76.3925123
  42.2469854  73.7680054  76.0077477  92.2097111   9.8282826  54.8272800
  93.0479050   9.5182800  55.1701593  91.5558815   9.4508630  55.4157448
   3.3566502  75.0360346  45.4987192   2.9340509  74.4465971  46.1233854
   2.7823910  75.0252104  44.7329903  85.0081921   5.5011702  57.4390841
  84.4594860   6.1740261  57.0360661  84.8229885   5.5703771  58.3756447
  87.0765972  77.9549456  83.9203644  87.0596218  77.0225811  84.1363239
  86.3021851  78.0883360  83.3738136  44.8368454  80.7550907  75.0925303
  44.6638775  81.6807938  75.2639103  45.7539988  80.7292938  74.8197842
  29.9014878  73.7178612  84.9440384  29.3155169  73.0184412  85.2333164
  29.3480158  74.2890882  84.4114971  30.3450131  38.8067627   6.5553266
  29.4775200  39.2075253   6.6108072  30.3997874  38.4774566   5.6582254
 110.9756565  25.9204531  10.1694155 111.7685509  26.0040855   9.6397352
 110.6501484  25.0412869   9.9761689  39.7959685  89.0309525  90.2449512
  40.2121639  89.2392921  89.4085217  39.1657686  89.7383308  90.3816605
  90.6533718  27.6658893  83.7199783  90.0463772  28.3517122  83.4416771
  91.0814953  27.3826718  82.9120636  53.6393833  12.8718364  85.3233337
  53.9786530  12.1073544  84.8578262  53.9065981  12.7367127  86.2324905
  44.7401047  84.6324635  63.7556791  44.4032145  85.5280113  63.7289047
  43.9757681  84.0836811  63.5800219  90.9977157   0.9897393  79.8912573
  90.8734043   0.1030416  80.2296925  91.0717065   1.5364713  80.6734562
  65.0224781  59.6524096  80.9863663  64.1922760  60.0284147  80.6937599
  65.5344725  60.4045296  81.2837029  39.1814661  87.0532036  48.2733727
  39.3604827  86.9365311  47.3403263  38.2930303  87.4081039  48.3042479
  26.8489838  72.6096630  77.5831461  26.0150576  72.6637983  78.0499077
  27.2961235  71.8609047  77.9776812  63.1025600  75.7332516  87.1055412
  62.6823425  76.4048338  87.6427746  63.9549398  76.1057472  86.8798733
  35.0803018  16.9305241  57.5014400  35.0949168  17.7629709  57.9737234
  34.1846728  16.8579960  57.1715641  51.5965748  54.7709751  85.7918739
  51.6548347  53.8188410  85.7126045  50.7488775  54.9919987  85.4061413
  26.5576696 101.1437321  74.0626669  27.4283123 101.4140224  73.7708521
  26.0127544 101.9215298  73.9429617  51.6116714  65.7872105  55.4637432
  50.8987427  65.4097462  55.9789991  51.3846207  66.7136049  55.3833008
  21.1354876  68.3168459  85.8286953  20.4200745  68.3998680  86.4591885
  20.6994057  68.2467365  84.9794960   1.5091781  77.6408100  58.9691591
   0.8227225  77.1405029  59.4104099   1.3094364  77.5512648  58.0373240
  58.6732578  87.9797459  62.2024870  58.0640888  88.5066032  61.6852283
  58.6910868  88.4063148  63.0591965  41.4248943  55.5187988  54.8811817
  41.5916634  56.2743855  55.4446650  42.2904396  55.2606821  54.5642614
  84.7630310  10.9340739  72.5576925  84.9320793  11.2670386  71.6763353
  83.8667297  10.6002414  72.5197887  45.3739405  64.6555090  56.7226696
  45.5885983  64.0976048  55.9750748  44.4591475  64.9006319  56.5837383
  54.4347620  86.8662262  89.4497299  54.7923136  87.7538490  89.4726372
  55.2034998  86.3000488  89.3810272  70.5999374  76.5354013  73.6628246
  71.1266184  77.1004295  74.2281437  70.9220171  76.7135048  72.7792120
  23.1085825  88.4144878  91.5188980  23.3651805  88.3740044  92.4401760
  23.5766912  89.1744232  91.1730671  39.4521761  90.4137897  46.1683035
  40.2834129  90.4567719  45.6956196  38.9180589  89.8045158  45.6586599
  24.2018318  60.8238077  47.6995897  25.0632572  61.1148071  47.4004316
  23.8084912  60.4103327  46.9311142  30.6056046  70.3221464  67.9793644
  29.9977446  69.5829821  67.9986191  30.6506324  70.6189489  68.8882732
  29.3800426  75.5216980  58.7749672  29.1626549  76.3700914  58.3887005
  29.1198707  75.6025791  59.6925735  50.0736761  83.4975052  61.6582918
  50.0970984  84.4537258  61.6219282  49.9978876  83.2248306  60.7438850
  30.6120729  66.0951805  52.0463991  30.3090334  65.1875305  52.0225096
  31.3779783  66.0769510  52.6202345  38.0253148  82.4088287  71.5554190
  38.6194324  83.0982399  71.8520021  38.2535195  81.6491413  72.0911741
  99.5921898  32.6411891  88.8497734  98.6462879  32.4983883  88.8829517
  99.7504234  32.9952168  87.9746437   4.2429197  74.4550180  54.4260550
   3.7970805  74.3192101  53.5899830   3.9019018  73.7643433  54.9943018
  60.2153492  67.2503519  85.4397678  60.9989738  67.6461887  85.8211899
  60.5080032  66.3950348  85.1250935  65.6339979  92.7872944  78.7935019
  65.1458311  93.3814049  78.2234526  66.1206055  93.3652115  79.3812656
  25.6264281  89.6665573  65.9088945  26.4039874  90.1453686  65.6218863
  24.9125338  90.0351906  65.3886127  84.0675831  85.7640171  57.1195459
  84.5488453  84.9616528  57.3215961  84.5054722  86.1174107  56.3452101
  44.3627214  97.3349953  41.1592627  43.4392309  97.1898651  41.3649988
  44.8003435  97.3368073  42.0105648  62.9799700  88.5533237  61.5233374
  62.7079487  88.5134888  62.4402094  63.1029320  89.4866943  61.3503170
  23.0837584  11.6081464  16.0103726  23.6482120  10.8913302  15.7208931
  22.4842501  11.7516243  15.2780902  50.3832006  72.4974489  64.8639107
  51.1833239  72.9288626  65.1637793  50.2045584  72.8909922  64.0098381
  67.6950455  66.9603443  57.0963335  67.8358507  67.8801441  57.3207617
  68.4159327  66.7451382  56.5045214  13.0401397  81.9768906  70.8908844
  13.7153172  82.5543022  70.5345726  12.9037762  82.2908878  71.7847729
 111.8181230  37.7805734   3.7497583 111.8194122  37.3824286   4.6202242
 112.7176622  37.6791668   3.4386671 105.6946373  38.8551664   6.2733364
 106.1353683  38.3921647   5.5608630 105.9630966  38.3882332   7.0646226
   9.3086398  65.3455162  71.7319345   9.3589121  64.9790668  70.8490896
   9.2753255  66.2925196  71.5966415  25.4247189  81.7626762  51.9136906
  26.1956763  82.3269272  51.8547201  25.6262136  81.0213757  51.3426447
  21.2130308  53.4894371  20.1615906  20.5302811  53.3482933  19.5057213
  21.6404891  52.6375055  20.2495027  32.5587034  61.1149502  43.6817408
  32.3723030  60.2203703  43.3967686  31.6963601  61.5086985  43.8142538
  26.5674281  96.9501591  79.1584015  26.0184765  96.4800644  78.5307884
  26.1714292  97.8195000  79.2189074  65.6397581  89.3101978  82.9053211
  66.2960720  88.6414051  82.7098751  64.8011971  88.8605976  82.8008938
  80.5406666  87.0036983  89.5607471  81.3000488  86.9422340  90.1402187
  80.2358723  87.9056072  89.6601963  56.0060120  90.1714230  67.3800755
  55.6099129  89.7948456  68.1659079  56.6408110  89.5147610  67.0936298
  91.3603306  13.3898115  83.9426613  92.2160053  13.3803225  84.3715858
  91.2158394  12.4818361  83.6763382  45.3606319   7.8008914  70.3933954
  45.9699631   7.2234476  70.8532953  45.9227371   8.4185970  69.9257326
  48.3997583 103.3397388  62.0653057  49.0967512 103.9541721  62.2952986
  48.7157679 102.9045391  61.2734890  90.2349567   6.0970086  69.9080992
  90.2739334   5.3283745  69.3389654  89.5735931   6.6598278  69.5055294
  66.7824316  96.5900612  88.6708069  66.7902279  96.9520378  87.7847195
  67.6582432  96.7719460  89.0115547  48.2925320  86.4388466  40.7390881
  47.7905178  85.6336117  40.8648396  47.8222132  87.0967388  41.2511444
  14.3736947  18.8756835   9.3969315  14.4720411  19.5692647  10.0492394
  14.9697995  19.1248477   8.6906677  38.5049391  98.0263424  35.5830264
  38.0203676  98.6930275  36.0698032  37.9854274  97.8823662  34.7920704
  37.9910874  42.9713631  12.4205327  38.0172467  43.4177017  11.5741694
  37.3048258  42.3113680  12.3221433  48.8304806  79.8424625  70.3990746
  48.9199924  80.2063751  71.2798595  49.5408201  79.2045784  70.3301477
  20.9664178  85.7094479  71.1330748  20.5972147  85.0874615  70.5061293
  21.7344761  85.2629566  71.4894009  32.2615647  33.6081076   0.3533139
  31.9144893  34.4895864   0.2163303  32.9682112  33.7249374   0.9883198
  35.8940887  83.5707569  69.8931026  35.8067703  84.5015430  70.0986481
  36.7389870  83.3210754  70.2673197  85.0823307   3.4307396  70.8664274
  84.3718052   2.9937169  70.3969574  85.8114338   2.8117675  70.8274937
  39.0080023 105.9189987  52.3146296  38.7300348 105.9027195  51.3988256
  38.8355494 105.0329494  52.6330662  76.0239506  15.0768781  77.1560144
  76.1507845  15.1217139  78.1037140  75.1648140  15.4729819  77.0103455
  49.9119425  49.6399546  83.0273628  50.5425739  48.9753437  83.3045483
  50.2417183  49.9453592  82.1822548  55.4477549  86.1773586  72.8605413
  56.1283207  86.4124680  72.2298384  55.8488703  85.4991722  73.4040546
  44.2917871  36.1088538  58.9723635  44.4205856  35.8793879  59.8926830
  44.3900919  37.0606494  58.9468145  62.2816181  62.9622173  75.0252485
  61.8436861  62.1112299  75.0088072  63.0401659  62.8302765  75.5939531
  95.2196980  75.8733511  53.2144785  94.6313286  75.1225519  53.1347275
  96.0975933  75.4920626  53.2020283  46.9494534  90.3649712  60.6858158
  46.7653561  91.3029003  60.7370138  47.8348541  90.2750874  61.0382652
  50.2718925  60.0088263  45.5116653  50.7673645  60.1248074  46.3223982
  49.4776440  59.5470810  45.7803345  74.2542458  70.1481771   6.2872982
  74.2980909  70.2123404   7.2413385  75.0664806  70.5526304   5.9824622
   1.2966135  19.5769691   8.4818119   0.9669568  19.0615153   7.7456963
   2.1122649  19.1429257   8.7319148  12.0272207  24.0467882  17.6094186
  12.0975959  24.8475075  18.1291580  11.2083125  24.1474319  17.1241426
  75.2191973   1.6649462  73.9080477  75.6379223   0.8046404  73.8802242
  75.9476995   2.2858134  73.9141226  55.5993557  87.2130871  34.9407530
  54.7035313  87.5050259  34.7719002  55.8567047  87.6779652  35.7369280
  62.6609182 103.9783573  89.2788219  62.8440619 104.1990757  88.3656025
  61.7635250 103.6454391  89.2694378  56.2898588  96.7023277  76.6032553
  56.5396500  95.7790756  76.6412640  56.1779594  96.8819427  75.6697416
 102.1549129  30.3542185   9.0705901 102.2764492  30.4471350   8.1256944
 102.9842854  30.6465268   9.4486427  66.4877653 100.9269524  38.1176376
  67.2218513 101.3764286  37.6989269  66.2601519 100.2229309  37.5103664
  15.2486300  91.1212921  86.5277481  14.4573426  91.3125515  86.0242462
  15.5948198  91.9813824  86.7657280   4.1825601  67.3351717   4.9407291
   3.7179551  66.5130281   5.0971001   3.6290157  68.0036306   5.3444415
  54.6411657  85.1754665  55.3909540  55.3581190  84.7513485  54.9194336
  54.0322495  85.4492664  54.7050333  79.3671370  12.6542091  46.0047340
  79.6089840  11.8932140  46.5325880  80.0514030  12.7102959  45.3377533
  83.0510426   9.4908738  46.2702990  83.3671284   9.9309951  45.4812336
  83.8438034   9.1661203  46.6972637  67.3578596 103.9703560  63.1330824
  67.0779228 104.7983360  63.5233688  67.6466894 103.4407806  63.8762903
  46.8476534  92.8578758  48.6599398  46.2355757  92.8870869  49.3952942
  46.3450432  92.4667358  47.9453564  13.7048137  14.1852117  50.1019239
  13.1955779  13.4499896  50.4430389  14.5981145  14.0176201  50.4021883
   9.6037114  86.5141201  86.3189316  10.2956283  85.9068108  86.5809631
   9.0162909  86.5481186  87.0739269  51.4262724  97.0390797  87.2561359
  51.4041424  96.0880375  87.3622417  50.5777645  97.2568417  86.8703270
   9.2215919  76.7718697  49.4698381   9.6796542  76.4461517  48.6950350
   9.7058463  77.5582743  49.7214270  81.0352898  97.2190285  50.1327991
  80.7133198  98.1051636  50.2981424  81.9301128  97.2220230  50.4726791
  93.6338711   3.8771972  19.3713892  93.0158329   3.4118831  18.8076985
  94.2880821   4.2309383  18.7688088  48.8059092  84.2398262  76.3187218
  49.1690207  83.3580875  76.2355661  49.2480469  84.7461796  75.6372881
  78.0862713  91.5017986  87.4473667  78.5138226  91.0761261  86.7042446
  77.1588421  91.2884331  87.3445034 105.0761795  47.8573227   9.4495565
 104.1753101  47.7918530   9.1327178 105.1653004  48.7676620   9.7316355
  99.7456455  35.8839440   6.9288152 100.4142094  35.7268405   7.5955755
 100.2413273  36.0465050   6.1262524  65.8317137  90.5936623  66.6396761
  66.2825108  91.3292694  66.2250662  66.4266539  90.3082275  67.3330736
  26.7034531  90.1885605  82.0124626  27.3610616  89.5939255  82.3732662
  26.0938573  90.3384209  82.7350712  65.8488417  78.0573130  38.0991602
  65.9582424  77.6335955  38.9504671  65.3272247  77.4380207  37.5886488
  72.9345989  65.6050396  82.8575134  72.3232508  65.4730511  82.1328926
  73.7112856  65.9872723  82.4489880  34.2729664  85.7215023  63.5495806
  33.7349606  85.7347107  62.7579927  34.4699907  86.6424465  63.7206602
  46.7257500  83.3485413  73.6146212  46.6714096  82.5926399  73.0299139
  47.6211834  83.6696911  73.5083246  75.8128595  19.5393097  51.0521364
  75.0756025  19.1877389  50.5530500  75.7606268  20.4861403  50.9216833
  66.4484692  67.4739790  79.4959784  66.8729448  66.6364002  79.3101978
  66.8640661  68.0917454  78.8944149  52.5244999  98.2627392  89.3062878
  53.1214809  98.6959648  88.6962414  51.7766047  98.0051422  88.7672806
  44.5998335  90.8816719  75.8724833  44.8523235  91.7952442  76.0061646
  44.9732590  90.4178524  76.6219139  35.9472394  89.2931938  78.6379910
  36.8936110  89.4117069  78.5569239  35.7847095  88.4171963  78.2880592
  35.6759501  86.5285015  73.9464808  36.0689187  86.1801052  74.7467422
  36.4198923  86.6982079  73.3685684  92.6192284  19.5824182  85.7259083
  93.0693817  18.8043690  85.3969288  92.5402260  20.1542282  84.9623489
  62.8944969  77.2882938  66.0244608  63.8174486  77.0387459  66.0704851
  62.4836922  76.5928984  65.5107546  67.6407385  82.8871918  46.6414499
  68.1893301  83.4679317  47.1687174  67.9210901  82.0053196  46.8862677
  57.3614931 104.4980621  48.7466145  57.8511953 104.7497463  49.5296097
  56.8871355 105.2906990  48.4957075  50.9563112  99.0128708  48.7364960
  50.6985664  98.9381123  49.6553087  50.3298140  98.4626007  48.2664633
  51.6811991  79.2609072  73.9425659  52.2588158  78.7336445  73.3906746
  52.2584295  79.9140215  74.3381405  62.0798779  80.2056217  76.1987257
  62.5183201  79.4895554  75.7391024  61.2754631  80.3526115  75.7011843
  72.4728298  15.2764547  45.4944086  72.7805614  14.3716538  45.4408503
  72.5072479  15.5949366  44.5923996  51.9706964  95.7645798  28.7895632
  51.9447470  94.8902607  29.1783190  51.8695593  95.6120396  27.8500247
  21.2722063  84.3492794  64.2679834  20.6862521  83.9933777  64.9359894
  20.6872845  84.6563721  63.5753202  67.0853424   7.3474163  17.9174113
  66.7620325   6.5204847  18.2750261  66.4922047   8.0098355  18.2718432
  75.0900173  97.8608036  72.0467567  75.1922750  97.4530602  71.1868048
  75.8446503  97.5532532  72.5489187  14.0654290 106.0265541  81.3825512
  14.8369014 106.5921307  81.3481045  14.3860197 105.2068138  81.7586708
  59.2577839  92.9776859  85.9640598  59.8037100  93.7417984  85.7788086
  58.5637236  93.0139542  85.3058815  52.4612427  84.7855568  41.6068697
  53.1723642  85.3383923  41.2829685  52.3227358  85.0770092  42.5080395
  91.3858414  10.9962678  74.5009613  90.6353664  10.5798578  74.9247789
  91.9474220  11.2720418  75.2254009  48.8156700  84.2834949  83.5416412
  49.0090704  85.1748276  83.2512093  49.5753336  83.7712097  83.2646751
  72.8162384  84.9386406  78.6053228  73.3339214  85.1644039  77.8324938
  73.3844471  85.1529789  79.3452072  95.8058739  85.4111767  35.2982354
  94.8621178  85.5551720  35.2287817  95.9778118  84.6673775  34.7208071
  40.5688810  87.2591209  63.9180708  40.6897211  87.4365330  62.9852486
  39.8639822  87.8492260  64.1847610  62.2094727  80.1984978  71.8854332
  61.8592215  79.3343449  72.1017599  61.5138483  80.8076859  72.1328688
  66.4604855   2.0693941  69.2529249  66.2606001   2.6599520  68.5266209
  67.4049234   1.9259913  69.1920614 106.9609356  55.7936192   0.7155316
 107.1123791  55.9879398   1.6404834 107.1942425  56.6022682   0.2595830
  16.0954285  40.7551432  62.6498699  16.7361712  41.4660072  62.6686382
  16.5570557  40.0275469  62.2330523  77.9642391  32.5559807  19.7488654
  77.5381517  33.0332971  20.4607987  77.4270439  32.7440262  18.9792597
   3.5777658  20.7446361  10.9664118   3.7993008  19.9861026  10.4262471
   2.9499426  20.4081750  11.6058362  48.4669828  73.1171322  72.0033026
  48.0682755  72.7442169  71.2170458  49.3689871  73.3087587  71.7465878
  60.1482201  87.5529480  66.0950279  60.3805065  87.2947788  66.9870043
  59.7116375  86.7837334  65.7290554  57.3033428  83.7716293  55.4154015
  57.5428295  83.7540627  56.3419914  58.0880308  84.0929317  54.9712563
  88.2825184   2.9469299  49.7294807  87.4444389   3.0728173  49.2844868
  88.0856705   3.0884933  50.6554604  65.4892635  80.7971859  51.0492134
  65.4793406  81.7181110  51.3100243  66.3600636  80.6636333  50.6749058
  46.3253641  98.6285782  27.7330279  47.1885300  98.7848473  27.3499393
  46.2335491  97.6757908  27.7359509  38.9336610  96.8882942  71.5184259
  38.7978625  97.4488449  72.2823477  39.6989751  97.2611332  71.0807896
  90.9892368   4.0804327  82.2441769  91.3844299   3.2182601  82.3734760
  91.5865803   4.5305574  81.6468430  23.8208222  77.5579500  79.4778824
  24.3227005  78.3701372  79.4093323  23.0803585  77.6831341  78.8843536
  37.8880572  91.2763405  90.1757908  36.9924593  91.2986469  89.8386860
  37.8661180  91.8370342  90.9512711  30.6522989  15.2134871  11.1772597
  29.7346759  14.9412835  11.1875486  30.7545781  15.7408798  11.9694889
  52.3944807  18.4520268  15.6142282  52.6741123  18.7038255  16.4943624
  52.5187397  19.2420495  15.0882483  73.8661385   2.6422599  57.3667049
  72.9563856   2.9398566  57.3705673  74.0330648   2.3939842  56.4574575
  41.8436432  97.6155281  68.6033726  42.2112465  97.4650002  67.7324867
  42.4148273  98.2772732  68.9933395  62.6640606  96.2870121  36.5080261
  62.5162601  97.2114849  36.7073417  61.9693661  96.0613346  35.8893967
  72.7430303   0.0237340  41.0198164  71.8757899   0.3957242  41.1802816
  72.8055341  -0.0356322  40.0665045   7.5325376  58.8984966  90.3152466
   8.2613891  59.5048809  90.1837063   7.2530162  58.6644030  89.4302082
  48.9727497  23.3699894  65.8013630  49.7888994  23.2184029  66.2779665
  49.1838789  23.1593895  64.8918009  44.1054201  92.1349430  79.1501141
  44.7030210  92.7725315  79.5407343  43.6049938  91.7910576  79.8900795
  31.1797762  36.1081862  -0.0760685  30.3579903  36.5989447  -0.0836267
  31.6871953  36.5016484   0.6338221  68.8808203 102.7188301  58.0434704
  68.9654684 103.5004616  57.4974680  68.8909531 103.0513763  58.9409924
  27.5114155 103.2694530  56.2791014  27.1338415 103.5611343  57.1089172
  27.1050119 103.8322735  55.6200790  12.4591470  74.8483038  51.6102839
  13.1677914  75.0987864  52.2030020  12.6697147  73.9513302  51.3507986
  17.1019506  85.0671005  51.0344934  17.0839810  84.1259003  50.8611393
  17.3941779  85.4568672  50.2105284 104.6954441  70.7743025  10.1138222
 104.2806721  71.2484360   9.3931341 105.6164551  70.7117558   9.8607278
  67.1127129  90.5267429  71.9520950  66.3332844  90.0045776  72.1420097
  67.3066759  90.9755611  72.7749968  80.7561207  68.1979418  41.2279987
  79.8255920  68.0827951  41.4205551  80.8410645  67.9590130  40.3049946
  29.5225739  54.7541189   5.1887071  30.2785039  55.2552652   4.8826730
  29.2050719  55.2402735   5.9496784  13.4845269  45.1498652   4.4797054
  12.5777483  44.8995829   4.6567476  13.4154940  45.8856583   3.8713714
  78.4340096   1.3432236  75.9183311  78.5425329   2.0497590  75.2817297
  78.1061554   0.6055870  75.4039049  41.4509201  74.0953922  68.6501741
  41.3367414  74.6776056  69.4013214  41.7244148  73.2616806  69.0327358
  23.4001398  26.1205912  33.1373930  24.3329453  26.0099363  33.3214116
  22.9731226  25.4255176  33.6381555 105.1400089  33.3046198   4.7414201
 104.6756649  33.3908701   5.5739927 105.4043674  32.3852301   4.7087371
  64.6342564  89.4321346  75.7842445  64.2245817  90.1994896  75.3847885
  65.4530287  89.3191719  75.3014612  73.5842609  16.6773081  77.2837019
  74.1015673  17.4682534  77.4354696  73.0863333  16.5579331  78.0924320
  70.6889009   9.2362273  70.4828119  70.5880070   9.6429998  69.6222401
  71.6352177   9.2042130  70.6231403  63.5025263 104.1132927  58.7338734
  64.1690731 103.9382744  59.3981934  62.7891064 103.5114193  58.9460135
  74.8142338 105.1592922  91.1081123  75.7376289 104.9073124  91.1170387
  74.8247719 106.1018276  90.9414959  95.9284306   8.2495892  86.7973518
  95.3100967   8.0178678  86.1043930  96.5511036   8.8411313  86.3747692
  76.7836761  23.1456161  68.6051941  76.6178417  23.5015750  67.7322531
  75.9817553  22.6724935  68.8272429  86.6166782   0.3873967  70.9412193
  87.4251366  -0.0821809  71.1464405  85.9209061  -0.1698960  71.2898779
  29.2522359  93.1120110  87.4509335  29.3558383  92.1655846  87.5498009
  30.1418519  93.4372139  87.3128796  83.6955643  14.1730225  81.9178200
  84.3510914  14.6500218  81.4089203  83.1503677  14.8568106  82.3069572
  77.1352434  81.2140274  72.9953623  77.6285315  82.0292187  72.9038954
  76.2778568  81.4881420  73.3209133  27.8756356  73.2054377  71.4298677
  27.0881200  73.0694199  70.9030390  27.6718068  72.8023577  72.2737932
 110.9720993  49.7578144   3.0319962 111.4429855  49.9473143   3.8435310
 110.1079750  49.4632483   3.3196744  52.8936052  79.3104696  82.1248245
  53.3782578  79.3115139  81.2993908  52.2788191  78.5816479  82.0406818
   1.7048791  18.9837897  52.3739243   1.7786129  19.9166226  52.5754642
   1.8803036  18.9270866  51.4346457  12.2907555  35.1531172  14.7193086
  12.3359275  34.4270086  14.0972519  12.5742185  34.7738242  15.5511844
  86.2809563  25.5657792  51.7219353  86.0810566  25.3406882  52.6305628
  87.0468712  25.0337052  51.5063095  80.6076241  75.2027225  67.2020388
  79.9515676  75.1078796  67.8925705  80.1775360  75.7376528  66.5348816
  45.6318808  55.2018309  15.3224659  46.2094212  55.0559902  16.0717380
  45.7103539  54.4032669  14.8005712  58.1449366  89.0813446  45.2180862
  57.1986532  88.9493370  45.1601219  58.4363890  88.4429646  45.8690548
  55.5140162  52.4353981  20.0747156  55.9845209  53.1108904  19.5862842
  55.8740759  51.6101980  19.7497070  38.9685082  72.7971649  73.5177612
  39.4619155  72.0082092  73.7420940  38.1497812  72.7147722  74.0067673
  29.1106606  84.9786091  67.2613621  29.7113156  85.3886604  66.6390276
  29.1676760  84.0428352  67.0682001  56.8822098  97.2793198  61.8243980
  57.3924780  98.0874920  61.7723513  56.0304928  97.5552082  62.1630669
  69.9785137  79.5155239  81.9779778  69.2258310  79.2578983  81.4456940
  69.8762703  80.4598808  82.0961952  80.0947666  75.2712297  74.7299194
  79.9694967  74.4922829  75.2719355  79.2179346  75.4843855  74.4106102
  49.3040276 105.0478745  88.0092049  49.9186993 105.6216621  88.4665489
  49.8420477 104.3198013  87.6982689 105.5790997   3.3364925  73.1754732
 105.0542164   3.9900270  72.7132797 104.9834824   2.9692322  73.8286114
  69.2568302   5.3589725  77.7737331  68.4119320   4.9171862  77.8586102
  69.8795795   4.7683400  78.1974840  79.6258497  69.1674471  30.9183931
  80.1914120  69.9396229  30.9289169  78.9611053  69.3483639  31.5829325
  26.6888881  96.6837978  62.8074121  26.0528421  97.0533085  63.4198952
  26.7148161  97.3088455  62.0829296  66.4658117 101.3304329  66.1737299
  65.8967447 101.5052414  66.9232845  65.9736538 100.7069397  65.6396246
  67.0788336  79.3120193  53.7952042  67.2233582  80.1273346  54.2754078
  66.4533567  79.5456648  53.1093311  40.0098085  86.7060471  45.4894733
  40.7984781  87.2342110  45.6130695  39.8800421  86.6876411  44.5412874
  95.3331470  36.7525601  10.9119856  95.6019974  37.6329565  10.6495917
  95.1087379  36.3157988  10.0903344  42.3189211  90.3234386  73.8156319
  42.9897261  90.3991604  74.4942427  41.9835615  91.2137127  73.7099457
   5.6283712  61.4932489  10.0005221   5.6700939  60.5712843   9.7466058
   5.9283733  61.9688320   9.2258918  25.9841943  96.3077545  84.2802334
  26.8680644  96.5299320  83.9875889  25.5619740  95.9356880  83.5059357
  54.2633343 103.7878323  23.8112330  55.0115585 104.1868687  23.3672094
  53.9335108 104.4754410  24.3897176  52.4376059  99.5915699  67.1705055
  52.4948978 100.5463791  67.1344852  52.1303415  99.4033527  68.0572939
  33.3143091  97.1451473  79.6140432  33.3367276  96.1990833  79.7578526
  32.3993349  97.3874760  79.7566366  33.8666677  10.2295184  83.8202286
  34.7617626  10.3675222  84.1300583  33.3337688  10.8137608  84.3595886
  82.5462151  94.2582512  73.5420513  82.5583076  93.7980366  74.3812704
  82.0976257  95.0831985  73.7277174  47.6195383  74.1701031  56.3784552
  47.8880978  75.0799799  56.2510347  46.6632891  74.1955853  56.3441944
  22.5259638 104.0561199  61.8204498  23.4807801 104.1236401  61.8203163
  22.2268271 104.8901272  61.4582634  29.2972994  17.7216399  12.5482249
  29.1540337  17.1299267  11.8095899  28.4205413  17.8910840  12.8929257
  68.8750696  98.3188057  44.8191881  68.6464024  97.7355766  44.0954542
  68.7122107  99.1983986  44.4785881  78.5804462  96.2401772  88.0578995
  78.2074785  96.6776371  88.8232517  78.9299631  96.9519997  87.5218105
  85.9016418  19.0832126  65.8271265  86.6712379  19.1100621  66.3956547
  86.1886406  19.5018888  65.0156021  51.3656235  79.9501944  78.3578253
  51.4045429  79.5334244  79.2186546  50.5928421  79.5683861  77.9415846
  21.3133168  28.5011554  13.8328564  20.7312012  27.9612494  14.3675280
  22.1943712  28.2178354  14.0772045  41.9092751  95.7925034  40.9861660
  41.0711432  96.2495518  41.0559177  41.7930508  94.9981976  41.5075254
  83.5469437  97.6689148  50.9744835  84.1684818  98.1602001  50.4372978
  83.9612007  96.8151474  51.0997629  47.2184372  76.8429565  76.4096975
  47.3839045  77.1218634  75.5091047  46.2864828  76.6251516  76.4255857
  38.3579707  96.5139389  33.1622005  39.1917396  96.2189674  32.7960706
  38.2377195  95.9781265  33.9462113  29.1637087  82.5819683   5.0895238
  29.3173552  81.8045712   5.6264329  29.7600746  82.4822521   4.3474758
  30.7487965  14.2372739   4.9283484  30.7198906  13.4097934   5.4086322
  31.1226106  14.8619878   5.5498219  11.7148483  41.6398716  11.0255814
  11.5085268  40.7843256  11.4020109  12.5908709  41.5334368  10.6547892
  62.5788355  61.4374542  80.8841228  62.7932072  61.8927860  81.6983414
  62.8247452  62.0530081  80.1935768  68.0074263  81.7925930  79.6344614
  68.4867382  82.0670700  78.8526964  67.1009827  81.7025852  79.3403673
  61.3455820  81.9281197  56.4328814  62.1564245  81.9883442  55.9277725
  61.1414146  82.8335190  56.6669703  50.0828075  81.5522671  68.3515120
  50.3524351  80.6700420  68.6069012  49.2162561  81.4346218  67.9623127
  83.3207035  16.9204807  87.0961285  82.6224327  17.5253034  86.8454647
  84.0233231  17.4856853  87.4172115  87.1085644  80.5867004  34.5839477
  86.9725227  80.5060577  33.6399031  86.2330627  80.4978466  34.9605513
  48.2771587  82.6597786  64.6074247  47.7107859  82.2980595  65.2890491
  48.7349653  83.3832836  65.0354338  23.9381456  43.2526064   8.2567728
  24.1083121  44.1934824   8.3017784  24.5666409  42.8661013   8.8665581
  41.2774134  92.7551746  74.7912407  41.4053965  92.6973057  75.7380819
  41.5962124  93.6274147  74.5593262  32.4683070  69.2009783  57.4636030
  32.6594234  69.9634504  56.9173956  31.6945386  68.8062096  57.0615244
  16.2083185  24.0240884  13.9369118  15.7648659  23.5348082  14.6298683
  15.5245352  24.5770955  13.5589516  56.1811972  91.6059017  78.6460686
  56.6943121  90.8472252  78.9242029  55.7815409  91.3348007  77.8196192
  94.6433926  11.5981209  53.1158590  94.6010494  12.0016432  52.2489023
  95.3006744  10.9079635  53.0269670  26.9381738 100.5584145  15.4361618
  26.5549135 100.0713253  14.7067189  27.3630357  99.8899364  15.9736133
  53.1749296  80.6386089  63.9025259  52.4013376  81.2009525  63.9418745
  53.8448668  81.1184311  64.3895388   0.4488859  76.2766504  11.7143750
   0.0798933  76.0291910  10.8665311  -0.2459341  76.0831118  12.3436606
  90.0461102   3.4876752  68.1180477  90.5516911   3.4868625  67.3052645
  89.1353226   3.4114254  67.8336525  70.7709408  73.7303305  81.2232018
  71.5707445  73.9614725  80.7508564  71.0411692  73.0393887  81.8280220
  73.9356184  76.8178177  65.4392767  74.6439886  77.1047735  64.8629951
  73.3615351  77.5803757  65.5111408  85.4851055   9.2432815  65.9058523
  85.6025600   8.3637989  66.2649441  86.3627434   9.5091313  65.6314516
  57.3467493  85.0459576  51.5279913  58.0496931  85.0482559  50.8783007
  57.7496624  85.4060364  52.3180771  64.1356230  81.3195992  65.8795500
  64.2046165  80.4819012  66.3375187  64.5413589  81.1607552  65.0272703
 106.3672924   1.3243501  49.2634869 106.3754368   1.2115580  48.3129883
 105.4386997   1.3689104  49.4914436  41.3801241  60.9065866  86.6568565
  40.6760788  60.5861998  86.0930252  41.8250942  60.1143980  86.9579792
  21.0820174  97.0202446  78.7292814  20.6330109  96.2105370  78.4863806
  21.4381433  97.3530388  77.9054737  96.7853737  10.5554211  65.3321171
  97.5035763  11.0345745  65.7454395  96.0888481  11.2047660  65.2349663
  57.7033281  81.3841152  38.9495683  56.9818640  80.8318901  38.6482978
  57.4965477  81.5697098  39.8655558  14.2303360  98.6519623  72.0512056
  13.9552367  98.3197689  72.9057217  15.1867867  98.6464024  72.0886660
  55.3918743  76.6748667  77.8686094  54.5352650  76.5593910  77.4573612
  55.9264565  77.0947313  77.1946859  75.0467873  75.2198219  41.1713648
  74.5802450  74.4239998  41.4267731  75.8914423  75.1557875  41.6171122
  82.8273487  10.4927874  79.0117741  83.7694263  10.6095648  78.8889170
  82.5492668  11.2747264  79.4887114  55.3002064  22.1998312  91.6625216
  54.8557846  21.4181616  91.3343330  55.5596058  21.9709255  92.5550165
  67.2746658  67.4981356  73.5677958  67.0557117  67.3797035  72.6435280
  68.0114746  68.1091356  73.5630035  31.1944818  99.8220921  85.9767628
  30.9591174 100.0565720  85.0790691  32.1361995  99.9857140  86.0279846
  85.3568745  97.8622913  40.8491516  85.3211975  97.4029350  41.6881704
  84.6082306  97.5232315  40.3584337  81.3922882  83.0811977  60.5553627
  81.7844009  83.9365101  60.3795242  81.9785786  82.4565792  60.1283407
  30.5672598 103.0747795  87.7552223  29.6131825 103.1334114  87.7049351
  30.7436490 102.8088570  88.6576653  34.0257049  13.0124354  51.1480808
  33.0795217  13.1570756  51.1412287  34.1413617  12.1637368  50.7208061
  12.7649426   6.1931312  62.8085756  13.3708549   6.2186849  63.5491467
  12.7943277   7.0778733  62.4444294  61.2867069 102.8721237  54.3795586
  60.7121944 102.4098969  54.9898958  62.1032953 102.9929924  54.8641253
  64.6566439  18.6032355  45.6884384  64.0636349  17.8557277  45.6122780
  64.5530081  19.0762758  44.8627710  65.0142670 101.4443874  68.4067631
  64.3506193 100.8720875  68.7918282  65.6283092 101.6136837  69.1212749
  50.1263571  97.8666401  74.0883780  50.8797455  98.2956409  74.4940805
  50.5008221  97.3480034  73.3763218  83.2563400  10.8908665  25.9836125
  82.4548817  10.3750980  26.0723734  83.9283657  10.3659296  26.4184189
  69.7383595 103.9976025  42.5144053  70.5291080 103.6983871  42.0656013
  70.0298357 104.7397900  43.0439663  23.4076095  30.9017873  76.2355471
  22.4970508  31.0735846  76.4755487  23.8934135  30.9978127  77.0546961
  50.2313042  99.3834400  34.9174070  50.3155613  98.6300468  35.5018115
  50.4408503  99.0380573  34.0496349  30.3876185  72.2368240  70.6654215
  29.5675898  72.5448084  71.0513353  30.7327437  71.6121101  71.3032722
  98.9018631   2.3904298  35.4553509  98.4633064   2.5410724  34.6179700
  99.8231602   2.2704443  35.2250361  77.6973248 100.3309727  57.0116138
  77.0524836 100.6939888  56.4044571  78.1841850 101.0922527  57.3272896
 112.2550028  48.2662725  38.4737992 112.7961215  47.5542450  38.1325722
 111.9026209  47.9262972  39.2962790  56.5694332  94.2971039  58.4214401
  57.3964071  93.9932251  58.0472660  56.6087484  95.2505684  58.3467102
   6.9491738   2.0709784  77.2887325   6.3024747   2.5940314  77.7624702
   7.7804255   2.5192702  77.4445772 100.4987717  19.5780921  63.7054825
 100.6458473  18.6354506  63.6278248  99.8719215  19.6643317  64.4237089
  32.8832221  81.5836143  61.2596941  33.7862492  81.2915325  61.3840103
  32.9246616  82.1776676  60.5102777  84.8503597   0.4264039  58.6168194
  84.2911441   0.5508203  59.3836498  84.8693092  -0.5215483  58.4854650
  47.7313900  92.7641582  44.2055655  48.0724049  92.4828815  43.3565474
  48.4950399  93.1096172  44.6678686  82.1355152  74.4232082  69.2810965
  81.4913082  74.8948479  68.7530899  82.9448891  74.9229193  69.1741657
  70.5333424 103.5665226  54.3976688  71.2789202 104.1666794  54.3854570
  70.6463242 103.0605316  55.2023077  64.6505451  33.1413341  88.7506771
  65.3257227  32.5334001  89.0519810  64.2057276  32.6739907  88.0435944
  96.5604877  84.7289467  82.5791454  97.2358322  84.8493385  83.2467175
  96.2629986  85.6159401  82.3767185  47.6815271   5.4640216  54.0985680
  47.4236202   5.6696510  53.1999969  48.6381721   5.4424077  54.0741873
 107.4950218  23.3821368  79.1991663 108.3879662  23.6788893  79.3747377
 107.1597862  24.0017200  78.5511160  66.4366913  95.5454159  75.2589035
  66.0009241  96.3882256  75.1323223  66.4543867  95.1515484  74.3866730
   8.2074767   3.7962466  72.7529907   7.6491290   3.6128408  73.5085297
   8.1457889   4.7440207  72.6340342  54.1887562 105.6918919  55.6203365
  53.9856045 104.8384048  55.2375555  54.6929352 106.1439228  54.9438000
  18.6449325  14.4283652  80.4556274  19.2345858  13.9816892  81.0630989
  18.4939885  13.7919331  79.7567654  13.3635461   8.2586080  36.7633104
  14.0789127   7.7203435  36.4245558  13.4148526   8.1547427  37.7134728
  28.6961389  66.6730690   4.3550062  29.5702863  66.3907576   4.6240801
  28.1627178  66.5864849   5.1450676  73.5632944  99.6647167  25.4227948
  74.5033646  99.6565437  25.2427101  73.4984446  99.5061874  26.3645458
 103.2670498 105.9065437  54.9441099 103.0811977 105.3782558  54.1678333
 102.5357723 106.5220070  54.9956703  39.7802353  99.9830151  50.5716705
  39.7619748 100.9170628  50.3632116  40.5861139  99.8655796  51.0746622
  85.9232616  34.8581529  85.2554607  85.8931160  35.3927422  84.4620228
  85.6514263  35.4522538  85.9550190  38.5775828  80.6798172  73.4693146
  38.9279628  81.0473251  74.2807341  39.1996050  79.9930239  73.2292366
  26.5080762  66.8448925  11.0781336  26.3283634  67.3394823  10.2785599
  25.7002568  66.3597441  11.2463331   7.8320688  15.7617331  45.0694752
   8.4726351  15.7025349  45.7782793   7.3027939  16.5286565  45.2884007
  21.8744898   7.1818924  70.2924109  21.3631845   7.0011014  71.0811520
  22.6495028   6.6265029  70.3768444  92.1885395  26.1620402  51.7867708
  92.5263023  26.1377883  52.6820707  92.9227638  25.8713222  51.2458229
 104.3782234   4.9316746  60.7249117 104.8177910   5.7814854  60.6959820
 105.0832176   4.3024340  60.8774710  15.4948127   9.0969902  80.4520798
  15.0880885   9.0501523  81.3173008  14.7606850   9.0513575  79.8395395
  93.1278038  29.6351862  61.6787529  93.5583115  30.0523424  60.9325171
  93.2971382  28.7004542  61.5611410  39.9740386  33.7810707   3.2847044
  39.3786192  33.1859255   3.7402350  39.9939799  33.4570956   2.3842186
  97.8849888  57.8516245  29.7397995  97.0411110  57.6947403  30.1634622
  97.8509998  57.3301315  28.9378524  25.9317152 105.5280729  42.8594494
  25.1550953 105.9100516  43.2683277  26.2543576 106.2120094  42.2726202
  99.0214729  13.9768660  87.5630093  99.3177986  13.2675374  88.1333351
  98.8149548  14.6948946  88.1613541  36.1309361 100.8697128  88.9411926
  35.1916003 100.7203197  88.8336563  36.5240383 100.0023460  88.8442802
  32.1474576  50.5526781   0.0317161  31.3721013  50.5556965  -0.5295716
  31.7993331  50.6120872   0.9213857  84.0526199  13.8950992  63.0442715
  83.1131268  13.9936435  62.8897715  84.1196537  13.1565332  63.6494637
  87.9753399   2.5767693  83.8376713  87.4087143   2.5719631  84.6091270
  87.8618431   3.4500667  83.4625721 110.3155327   1.5286879  30.4103708
 110.1321793   0.6608701  30.7702398 110.4148960   1.3818119  29.4697404
  73.9171839  66.7835855  51.9477940  73.0931282  67.2147322  51.7213297
  73.7145901  66.2781000  52.7349854 101.5677261   3.1509438  49.2359924
 101.6080761   2.5040048  48.5316706 100.8227348   3.7070474  49.0080261
  75.6364632  11.4397323  58.3831024  74.7764063  11.1522388  58.6895132
  75.8152866  12.2357512  58.8837099  75.7462597  38.4485221  87.2149849
  76.3454914  38.8238072  86.5697670  76.1348295  38.6715055  88.0608749
  93.8518143  78.5222721  48.5848188  94.1647339  79.0386248  49.3275833
  92.9429340  78.7984896  48.4670401  50.7918644  97.4819946  80.5963802
  51.6944408  97.1633911  80.5874538  50.3876638  97.0780277  79.8284817
  60.2424479  93.5917282  67.8649712  60.3972673  93.5953522  68.8095617
  61.0196877  93.1717968  67.4964809  45.7731009  11.9643235  70.8129644
  45.8194637  12.9176044  70.7399082  44.8432446  11.7791319  70.9445095
  59.9273777  99.4576740  44.0399790  60.2783203 100.2595901  44.4272804
  60.0236654  98.7979412  44.7267914  74.7808123  27.0204377  23.7511206
  75.4065561  27.4256301  23.1507087  74.6517181  26.1381721  23.4030199
  76.6975069  17.3769414  46.6928959  76.8079329  18.2693040  46.3646746
  76.0796881  16.9724679  46.0838556  93.0471039  23.4633946  88.2299805
  93.5913754  23.8562775  87.5475979  92.1535301  23.5347176  87.8942966
 111.2565613  19.1171479  80.8124924 110.4459000  19.6028757  80.6604290
 111.9076633  19.7919703  81.0046196  65.4485846 103.8284874  71.5457106
  65.7265854 104.3397045  70.7857132  64.9491501 104.4459724  72.0800400
  83.8309574  90.8050632  55.1982164  84.2809772  91.6134262  55.4436922
  83.9329433  90.7532692  54.2478752 107.4354172   2.9723001  70.5896330
 106.7345047   2.3509717  70.7868910 107.0109081   3.6553562  70.0705338
  19.2534828  63.3173609   0.6277505  18.5685313  63.5894489   0.0169803
  19.4724131  62.4248362   0.3599837  95.3868866  97.5136852  54.5254946
  96.2992477  97.7143764  54.7341871  95.3950691  97.3056221  53.5912180
  78.8974810   5.0943047  53.9186192  78.3955050   4.4624069  53.4038782
  78.5793686   5.9483093  53.6258554  81.8120861  93.7226486  88.7642384
  81.3922501  93.4861374  89.5913029  82.5845528  93.1592751  88.7180519
  92.8808975  10.2934980  47.6934624  93.3884144  10.2829027  48.5049772
  93.3945179  10.8379972  47.0968485  98.9815331  42.7239847  53.7746906
  98.7041664  43.5602188  53.4005117  98.5243416  42.6738071  54.6141481
   9.5789540  34.8064756  81.6063404   9.6153784  35.6694984  81.1939144
  10.0016284  34.2221880  80.9769058  13.6798394  12.8592443  47.2424316
  13.6356628  13.5583949  46.5901470  13.6661005  13.3154416  48.0838156
  83.8119698  24.9506688  30.4567361  84.5624828  24.3609095  30.5285525
  83.2427216  24.5360518  29.8084474   8.3509177  41.1108303  20.5494285
   7.6841390  41.7886972  20.4392934   9.0281987  41.3351440  19.9113011
   1.6578071  27.8787090  90.7662493   1.0379355  28.2553245  90.1416284
   1.1120455  27.3797943  91.3740796  52.1501064 101.8837929  70.2136660
  51.9957924 101.6411972  71.1266661  51.6120625 101.2734604  69.7094488
  78.4340143  18.6289847  64.9502516  77.8568649  19.3404508  64.6728563
  79.0156460  19.0303111  65.5959082  56.8481064   3.3039007  66.0205984
  57.4225426   2.8431460  65.4090738  55.9716272   2.9761323  65.8191395
  36.3293195  90.1088619  57.3909473  36.3259912  91.0639858  57.3281193
  37.2092891  89.8921585  57.6990509  94.6019745  31.3490438  90.2962685
  94.5009613  30.4440546  90.0012779  93.7233257  31.7226434  90.2281857
  71.4739704  95.4162693  49.7887373  71.4499378  96.3324356  49.5125198
  70.9371567  95.3907585  50.5808306 111.6597409   7.7538252  50.6316090
 112.5144283   7.4047935  50.3787899 111.6672633   7.7358896  51.5886116
  46.0339928  91.1965942  73.4484243  45.7143068  91.2220287  74.3503046
  46.9871187  91.1707592  73.5328007   0.3276879   1.7886235  13.7685752
   0.5447308   2.7063960  13.9323354  -0.1503304   1.7998283  12.9393554
  97.3194790  18.6835492  56.3425446  96.5682983  18.1696963  56.0460234
  98.0694199  18.1000459  56.2270594  15.7226253  57.8240061  12.4689472
  15.1545012  58.0144644  13.2154000  15.3422856  57.0402622  12.0723140
 107.4623775  53.4125614  61.6455173 107.7465057  54.1912079  61.1667538
 106.7966747  53.0156517  61.0837889   9.2818260  21.7755699  55.8748245
   8.5952634  21.1086679  55.8850956   8.8510072  22.5678015  56.1957550
  97.2138691 105.2345371  77.8572655  97.2355652 106.1768246  77.6903629
  98.0941677 105.0263977  78.1702805  83.3408260  14.8089588  73.4520006
  82.5350380  15.3216445  73.3879566  83.3167934  14.4339895  74.3323708
  17.5304556   3.0300581  72.4879599  16.9912386   2.2530481  72.3405457
  17.2178626   3.3840823  73.3205366 100.1578522  27.2135043  45.6440783
 100.0861263  28.0660844  46.0732555 100.9818840  26.8504858  45.9687424
  62.8889704 105.3276348  83.5427761  63.0471897 106.1518097  84.0031433
  62.6700974 105.5908108  82.6488686  64.2672110   9.4889456  45.0803518
  64.8988008  10.1160419  45.4325962  63.4398603   9.7191745  45.5030966
  57.1009350  10.5653703  52.4510145  56.2647104  10.4209661  52.0081711
  57.7604675  10.3994179  51.7774296  12.9817832  78.9090157   5.7457715
  13.5582411  78.7049484   5.0093704  13.1074393  79.8459911   5.8958137
  78.3398628 102.8069401  60.3614235  78.7630939 103.4219170  60.9605169
  78.4098577 101.9589043  60.7998085  66.7627859 100.0467587  62.3374653
  67.3749065 100.4258060  62.9682255  67.2480631  99.3257618  61.9363356
  75.0406551  17.4496412  36.0011625  75.0283861  16.4980567  35.8983660
  75.5860853  17.7615416  35.2790427  32.4548507  95.8316040  71.5472603
  31.6391802  96.1368942  71.9443846  33.1153440  96.4566612  71.8460464
  89.7582626  26.9553399  50.4114246  90.4884434  26.7088985  50.9791660
  89.5802498  27.8692985  50.6332779   7.1700329  26.9557667  90.0042057
   6.9323254  26.1705089  89.5111561   7.9589576  27.2811270  89.5706463
  21.2703323  70.2214241   2.4575877  21.4490223  70.4717636   3.3640271
  21.6383266  69.3416452   2.3750952  41.8514585  23.0245757  43.0571604
  41.3154697  23.5534692  42.4662113  42.7464104  23.1421447  42.7386189
  80.8813858  92.4321651  91.3233662  81.2552166  91.8984604  92.0245457
  79.9463701  92.2279263  91.3394451  53.2098818  81.0420227  67.0957565
  53.1554794  81.9899178  67.2172499  52.4033213  80.8130646  66.6339445
  33.2394576  94.6108532  80.6295681  33.5517335  93.7720490  80.2902699
  33.1440234  94.4677448  81.5711880 108.5375881   5.3933418  76.3237190
 108.1227589   4.5719004  76.5871286 109.3850899   5.1295531  75.9654188
  47.5542927  72.6236963  29.6717453  47.5301361  71.7852211  29.2106509
  48.4851027  72.8400135  29.7268271  62.6373053  32.2747231  50.4788876
  62.2326756  33.1120205  50.2520800  61.9469309  31.6278601  50.3333426
  52.3204708 101.6481495  29.5744085  51.9103575 101.3176250  30.3736520
  53.2180738 101.8558407  29.8340344  54.9504328  80.1449394  75.8763742
  55.6926727  79.6020031  75.6108046  55.0075579  80.9191799  75.3164291
  10.0419331  36.5174675  -0.3241294  10.9710729  36.4063144  -0.1226917
   9.6551126  36.8292713   0.4940270 104.2636490  16.3139021  44.7443295
 104.2461205  17.1817577  44.3409061 103.4313011  16.2506819  45.2127790
  90.1363659  12.2881579  78.2265568  90.7161140  11.6495585  78.6416721
  89.5624065  11.7633641  77.6685286  35.0341582 103.7702847  77.7607250
  35.6461048 104.4710541  77.5356150  35.3970408 102.9909897  77.3397017
  86.4805794  44.1760445  83.2831478  87.0555115  44.8732376  83.5987473
  86.7338371  44.0524530  82.3683739   8.5433412  26.3793230   2.5831130
   9.3918127  26.3429308   3.0247051   8.5234177  25.5931449   2.0374393
  74.3664837   5.3025979  87.6338768  73.8694382   4.5060006  87.4478340
  74.8036814   5.5104584  86.8081093  50.3341913  10.9233868  47.0495033
  49.4312906  10.7958448  47.3406029  50.8442163  10.3053570  47.5730944
  41.7430592  99.6093941  47.2728777  40.8191776  99.5161343  47.5052023
  42.0833635  98.7147617  47.2802162  66.5689278 104.9505615  53.8016081
  66.4019585 104.6245575  52.9172564  66.6577673 105.8976364  53.6949539
  36.1748505  32.3457098  26.7655325  36.1707616  31.7886782  27.5439477
  36.7627239  33.0669308  26.9902015  14.8161447   0.9608875  68.5896111
  14.1696131   0.2562281  68.6306381  15.3609085   0.8316107  69.3659830
  75.4992008  81.0097027  91.3986206  75.3246355  81.7465878  90.8131790
  75.7135153  80.2838039  90.8126450 104.9273491   7.2224146  84.1887951
 104.6720028   6.9930446  85.0823307 104.5897770   8.1092930  84.0634060
 101.4975262   8.2236892  21.7054605 101.4331150   8.4268117  22.6386380
 102.4295998   8.0620909  21.5592957 103.7991524   0.9586553  44.6084023
 103.1497478   1.6184577  44.8516273 104.6201515   1.4455849  44.5369577
  76.0774231  95.7281494  80.7882214  76.4367247  96.3421535  81.4286423
  76.8155098  95.1643753  80.5566597  15.1245260  21.8973207  50.2256060
  15.2500689  20.9563732  50.3484440  15.7892084  22.1457863  49.5831919
  79.2052889  22.2290087  79.6311855  79.5675755  23.0346799  79.2625713
  78.8660574  21.7508149  78.8745546  94.9912167  32.4752402  18.6081457
  95.5503750  32.5288415  19.3831956  94.7812176  31.5447903  18.5281980
  75.9859610  86.7005253  65.4345083  75.4481173  87.2797203  64.8946190
  76.6721964  87.2684860  65.7848358   4.9041018   3.7732193  31.1098266
   4.3194336   3.4882087  30.4075694   4.8434076   4.7284335  31.0991478
   1.4904912  98.3377075  87.9494476   2.0548037  99.1054058  87.8577042
   1.9868344  97.7411938  88.5098553   2.7566615   6.8634945  86.5839291
   2.3042625   7.1524149  87.3764515   2.9017001   5.9270149  86.7188454
 100.6788349   7.9801708  44.4035053 100.0638294   7.5764036  43.7911558
 101.5409088   7.8118497  44.0230751  58.6915588  77.9046679  77.6555681
  58.7250328  77.1661282  78.2635784  58.4510612  78.6534214  78.2012415
  80.6486988  24.6869707  41.6042900  80.1910019  23.9942908  41.1279058
  80.3797245  25.4955363  41.1682796  33.7322783  39.7811270  10.2041924
  33.8223839  40.5077171  10.8207762  33.1056929  40.0961256   9.5527345
  67.5688696  91.7501831  83.4477234  66.6244030  91.6617680  83.3196735
  67.6547670  92.3330402  84.2021275  14.7233427  10.5389977  16.5053391
  14.9337113  10.3823447  17.4259019  15.5699527  10.7066214  16.0913503
   9.4120121  17.9171264  89.9658489   9.5067698  18.8541698  90.1367378
   9.7798485  17.7948749  89.0906429  76.8610191   2.4213606  47.8599501
  76.7696810   3.1781060  47.2809649  76.1063290   2.4758565  48.4462118
  93.2399750  13.8430858  44.1108990  93.2431030  14.5019090  44.8052835
  92.8264904  13.0772042  44.5092535  83.8274956  80.2194500  46.7460442
  83.1527901  80.6781292  46.2454271  83.7823296  79.3149328  46.4361382
  35.0211334  59.1938829   5.6635791  35.7481384  58.5901022   5.8157241
  35.3278089  59.7654867   4.9596959   7.7098453  37.0607877  75.7784319
   7.7533603  37.7013063  75.0684500   8.5946625  36.6992140  75.8293772
  58.4359932 105.0757504  86.7325306  58.9662743 105.8696842  86.6640091
  58.0442381 105.1239014  87.6045609  89.9717426  66.7119074  69.4976950
  90.4294968  66.7348099  68.6573505  89.9535847  67.6246405  69.7854900
 111.1083984  78.6078119   2.4261504 110.6273842  78.0372429   3.0255765
 110.5654335  78.6398745   1.6384991  17.2878003  15.8629215  43.1887388
  16.7025149  16.5237951  43.5587645  17.6904666  15.4460907  43.9505434
  56.6825676  94.7694778  70.8070850  56.8057871  93.9818764  70.2772427
  57.1533537  95.4540253  70.3316975  45.9940815  23.8952994   4.3003863
  46.9107246  24.1074848   4.1243857  45.6325531  24.6944833   4.6835756
  33.6328459  88.3059692  74.6507359  33.9628696  87.4155331  74.5305490
  34.4156051  88.8310528  74.8174953  95.6016254  82.9404640  79.9800873
  95.4835033  83.0221462  80.9264565  95.8775139  82.0330811  79.8505878
 101.1137962 102.1027088  61.1229420 101.0550785 101.4342117  61.8055010
 101.1295319 101.6078472  60.3037357  92.0833302 104.5490837  43.2519770
  92.0750618 104.8887253  44.1468525  92.9273891 104.8286152  42.8974915
  64.7079849  17.0701015  38.1300116  65.3602886  17.4707687  37.5553823
  64.2101240  17.8092945  38.4792399  90.8198929  23.9019799  23.0458617
  90.3010941  24.6270466  23.3942270  90.7196522  23.9702487  22.0963788
  49.9149847  89.6637344  76.6551781  50.6026840  89.3687725  76.0582733
  49.1786480  89.8810959  76.0835171  38.2008839  19.9003494  19.7026801
  38.5845304  19.3501592  20.3855705  38.9321542  20.4275203  19.3808639
  24.0578055  18.4460139  58.4585381  23.7108374  18.9156878  57.7000856
  23.8073516  17.5340724  58.3106613   7.7312428   3.2170665  41.4148378
   7.6169568   2.3523548  41.0205746   8.3192569   3.6774763  40.8160925
  57.6919031  99.1184235  53.1286669  58.5421610  99.4330215  53.4357834
  57.6667595  98.1989670  53.3936310  71.5907097  78.7921286  61.2336111
  70.8234596  79.1701794  61.6633034  72.3183107  78.9935303  61.8220568
  64.9713230 101.9400978  51.5060043  65.8846760 101.7864704  51.2643147
  65.0130796 102.6152420  52.1832514  65.4645014  98.8406467  77.3553991
  66.2094927  98.2398796  77.3382187  65.8218050  99.6552277  77.7089977
  78.3582592  25.4187441  53.9794445  79.2780495  25.6478167  54.1126585
  78.3423328  24.4622707  54.0131378  95.4613209  21.0444212  49.2181540
  95.3927612  21.9043946  48.8034534  94.9963760  20.4545951  48.6247206
  39.6552706  93.5988522  62.8853941  40.6058550  93.6816025  62.8093767
  39.3835020  93.1937122  62.0618439  27.7992320   9.3031180   9.7969365
  27.0790625   9.8442876  10.1205456  27.4247193   8.8225573   9.0586728
  85.0006962  85.5709267  39.0611529  85.5550003  85.1191902  39.6974730
  85.5893040  86.1876678  38.6259532  22.7858305  70.6913137   4.6351865
  23.7380338  70.7284975   4.7254911  22.4619794  70.6355476   5.5342096
  73.0085993   9.2365247  64.7253561  72.1627140   8.8369131  64.9278927
  73.3413172   8.7303168  63.9842176 100.9190273   8.3388948  78.4092045
 100.6407166   7.7712160  77.6905155 101.0609627   9.1921479  77.9992723
  48.6323261  11.3435948  91.4201069  49.1155624  10.5234182  91.3199615
  48.2448101  11.2881470  92.2935963  47.4499559  98.4213734  54.8478413
  47.6971626  97.7617168  55.4958963  46.7407131  98.0143547  54.3503141
  80.9948921  13.1110001  91.0758114  81.8679905  12.9723871  90.7087803
  80.9008217  12.4243295  91.7360115  68.7481785  99.7979736  40.4196548
  68.7313032  99.3346405  39.5822358  69.0889597 100.6665611  40.2059841
  92.2560270  -0.0766211  50.8994961  93.0072553  -0.1324874  51.4900589
  92.5025327   0.5925817  50.2610302  66.4915466  95.3092766  90.8887005
  65.5839157  95.1021099  91.1112309  66.4381075  95.7264423  90.0288391
  61.9502401   7.2790927  48.3414745  62.7445078   7.6755196  48.6995506
  61.8717861   7.6513511  47.4631214  20.2160525  35.1793075  38.8591337
  20.1377201  34.4275713  38.2717752  21.0700274  35.0686955  39.2771363
  60.9696627 102.8023148  63.5187674  60.2449799 102.9245472  64.1320562
  61.7552710 102.8518105  64.0633869  65.8715057   5.5462843  63.5888910
  65.8686352   6.1267537  62.8277874  65.0702477   5.0302982  63.4996080
  61.3148499  86.5830231  71.1931181  62.1658802  86.1814308  71.3683271
  61.4856577  87.5246429  71.2132597  19.0880513  40.7740641   7.0734477
  19.9397480  41.0293913   7.4279219  19.0539944  41.1874199   6.2107730
  73.4170055 104.9507046  22.9918909  73.8285875 104.5971680  22.2033215
  73.1951427 104.1789341  23.5128307  48.4832144  94.1350555  38.6823416
  48.9653301  93.3089924  38.7199855  48.3788443  94.3090439  37.7468944
  65.7480240  96.3841534  67.5411129  65.2557230  97.1492672  67.2436619
  66.6501617  96.5614223  67.2747469  53.5627174  12.2847414  81.6732025
  53.1555510  12.9897535  81.1698151  54.4803905  12.5454581  81.7515182
 110.7305145   5.9728611  64.1185474 109.8436069   6.2708378  63.9164591
 111.2808514   6.7422271  63.9721489  35.8766079  41.2055779  11.8156123
  36.2433219  40.3629112  12.0833278  35.9904265  41.2252951  10.8654082
  97.6310539  27.2422957  78.3585072  97.2476006  27.6806784  77.5988913
  96.9425869  26.6538191  78.6682415 101.6893578   9.6095157  66.9021845
 101.7842197  10.3727698  67.4719858 102.5492001   9.1892821  66.9195795
  94.3998051   8.3732581  54.9196959  95.1923847   8.0370486  54.5013618
  94.6993637   9.1247272  55.4313469 105.5411053  76.5178156  84.7079563
 105.7081127  77.4007034  85.0378704 104.7470570  76.6053963  84.1806507
  40.2455521  68.6897087  53.9051580  39.7740650  67.8886318  53.6766720
  40.3910780  69.1292095  53.0673647  29.1113544  12.0574749  39.4363379
  29.4305062  12.4295223  38.6141729  28.1595898  12.1458697  39.3857288
  48.2986259  21.3194680  25.3746605  47.9720068  22.1902251  25.6012249
  49.2514753  21.4068508  25.4005575   8.9962083   9.0402150  71.7521715
   8.3399796   9.7366780  71.7753029   9.7906351   9.4481248  72.0967388
  54.1342354  53.6260891  23.9114714  53.7836838  53.1015587  23.1915998
  53.8974476  54.5265055  23.6891699  46.8613672  35.7373166   7.4539202
  47.5858498  36.3578939   7.3749435  46.5562868  35.6097269   6.5556556
  95.0539207  96.1330605  52.4050045  94.6553993  95.3157711  52.7041006
  95.3881168  95.9308147  51.5311432   6.3319570  19.8118985  68.0782890
   6.0501385  19.1267025  67.4722242   7.1074843  19.4490218  68.5062027
  78.5499287  88.4823227  65.7927608  79.1172934  88.3783627  65.0288773
  78.9496040  87.9302692  66.4648676  68.1095028  98.3313274  74.9334240
  68.2398844  97.5626278  74.3781424  68.2098246  98.0015373  75.8263969
   2.2765613 103.7520790  58.5744047   1.4473328 103.8332558  59.0455961
   2.1603011 104.2892265  57.7907038 100.8256817  21.2587190  25.3409028
 101.1231041  21.7616034  26.0991096  99.8703861  21.2893152  25.3929663
   8.6605996  45.1820087   2.3743777   8.1804812  45.9685469   2.1153787
   9.0184903  45.3929567   3.2367274  30.8529472   2.1095134  64.9278069
  30.0423527   2.3973536  65.3477097  30.9523749   2.6917911  64.1746140
  67.8652573  38.4869957  86.6997337  67.6237392  38.5586166  85.7762814
  67.9209566  39.3929410  87.0036888  97.9558086 102.4973202  42.6346254
  98.3102798 103.2288742  42.1292353  98.2086182 101.7187119  42.1385479
 108.6083698  45.0003004  69.3377590 108.8840961  45.8288908  68.9457893
 108.0389023  45.2563286  70.0632906   6.1610132  28.1935048  34.7395873
   6.0409313  27.3667574  35.2068114   6.9057393  28.0348444  34.1595531
 108.2803822  27.2647047  77.2815228 108.4243870  26.5245175  76.6919279
 108.4225464  28.0375075  76.7349005 111.6355991  11.7532670  58.8994980
 111.4389324  12.6798606  58.7617302 112.4977589  11.6297925  58.5024405
 108.5460567  37.7995825  61.1831570 107.9659176  37.9937959  61.9193268
 108.8810158  36.9219995  61.3672256  53.6075687 105.5378342  28.6365247
  53.6379051 104.6144009  28.3863521  54.2765284 105.9551239  28.0937648
 109.7071075   9.1808754  67.6717472 110.0844669   8.3068693  67.5720119
 110.4098415   9.7023278  68.0596638   7.0629501  23.3271861  80.4060173
   7.5676811  23.6963964  79.6813393   7.4671030  23.6956501  81.1915970
  53.0094147  39.4845200   6.9945228  52.2279930  39.7839117   6.5297914
  53.0172348  39.9955082   7.8038824   1.9873512  45.6007862  84.6498013
   1.5868318  45.6938648  85.5141830   1.8800694  44.6742725  84.4346333
  80.9639645   6.4372551  45.6182098  81.8537617   6.3338935  45.9555674
  80.4803562   5.6985223  45.9878397  91.6773891  15.0529945  54.5638132
  91.7481041  14.8403263  55.4944086  91.3616848  14.2460871  54.1570425
  62.2582960  83.6458015  77.7575874  61.5812635  83.4055233  77.1250296
  62.6007318  82.8088570  78.0714273  81.6191292  83.3617878  63.7274837
  81.8480110  82.6056099  63.1870747  82.3731136  83.4803486  64.3051481
  72.1982193 101.1636353  65.4718304  72.2867441 100.3428459  64.9873734
  73.0517292 101.2904453  65.8861685 102.5920582  89.2738914  61.8807697
 101.9812679  89.5632458  62.5585842 103.4542179  89.5249176  62.2122860
  98.8677798   1.8976023  91.3240797  98.7784110   1.2426140  92.0163515
  99.6697889   1.6512062  90.8633189  36.4684153  42.5842619  19.5409560
  36.7373466  43.2806396  18.9418173  36.8181801  41.7836046  19.1500020
  35.4983544  40.7736540  49.1774130  35.2228594  40.1271391  49.8273039
  35.0749421  40.4931259  48.3660841   1.5752743  11.1363792  58.1761026
   2.2985971  10.8128095  58.7130737   1.3276419  10.3886819  57.6321745
   6.3753283   7.1434247  75.8656359   5.5918407   7.2269177  76.4091492
   6.2363821   7.7620137  75.1485062   6.2034595  15.5652869  85.4659653
   5.3667617  15.1756406  85.7196236   6.7208701  15.5668795  86.2712669
 100.3806305  10.1583982  71.0857344  99.7544479   9.4345814  71.0710716
  99.9824715  10.8078516  71.6653109  64.4826746  93.3157730  88.6449528
  64.4692373  93.4220409  87.6937675  64.0444517  92.4787712  88.7986565
  23.8692784   5.2612579  62.0123386  23.2159948   4.8869506  61.4212799
  24.5402265   4.5828101  62.0882845 101.7190552   1.0738073  79.5276451
 100.7651615   1.0052729  79.5680428 102.0347023   0.3141510  80.0170517
  97.3908234  22.8823376  43.9619207  97.4158478  22.4854565  44.8326063
  97.8839397  23.6973405  44.0559340   4.2734852  81.6971874   2.7760124
   4.7151613  80.9938812   2.3000784   3.4926447  81.8851948   2.2552671
  30.9140110  69.5117569  41.6839552  31.1403251  70.4418182  41.6833925
  30.7641697  69.3022728  42.6058531  94.7919559  10.2433789  42.6601219
  95.5157948   9.8499525  43.1474686  94.6933937   9.6873617  41.8872309
  17.4558222  19.4538605  67.7484751  16.7262578  20.0542450  67.5951624
  17.0400512  18.6042666  67.8952980  68.3749437  94.5682049  56.5018892
  68.3046103  94.3132877  57.4218369  69.2737389  94.8840427  56.4089108
  68.6613894  98.4410477  13.8204432  67.7237749  98.3780098  14.0024900
  68.7123346  98.5965824  12.8773379  58.6523771 101.8344784  47.3036194
  58.6126280 102.7908230  47.2959661  59.4937563 101.6264725  46.8973637
  93.8488483  83.7592220  78.0460691  94.5125008  84.1658688  77.4888992
  94.3489170  83.2260227  78.6640215  80.9328175  90.5289173  59.3483305
  80.6922913  89.6287346  59.5675325  81.7165279  90.7012749  59.8701763
  87.5642488 105.4133486  64.1204929  88.1291125 106.1842845  64.0674019
  88.1545530 104.7002111  64.3638229 110.3158092  31.8708777  66.9522667
 109.5414925  31.5650702  67.4246502 110.5531693  32.6902533  67.3864555
  11.9700229  30.2810836  65.8399630  12.7831018  30.6058931  66.2267876
  12.0552051  30.4739690  64.9062777   2.1598965 103.8755131  51.6897631
   2.6567695 104.6784592  51.5328074   2.7780208 103.1701088  51.4985704
 108.4383678  60.2313948  43.0088949 108.7793541  61.0868216  43.2700443
 109.2189026  59.7057247  42.8337574 112.6810667  32.5304151  86.1242580
 111.7802349  32.8279138  85.9968662 113.0555931  32.5167012  85.2434826
 100.3764248 103.2504177  47.1907377  99.8472881 103.1466866  47.9816198
  99.7576904 103.1276131  46.4707947  83.2579327  99.3854427  69.9467230
  82.8629208  98.6093998  69.5492840  84.1936970  99.1869354  69.9811125
 106.8416595  36.0864520  43.4139204 106.8453312  36.3937092  44.3204594
 107.1689796  36.8299723  42.9076910 105.2388954  33.7932682  57.1917295
 104.4263363  34.2581010  56.9919586 105.4849815  33.3755350  56.3664007
 107.4685669  40.4655361  36.9542313 107.8884983  39.7378683  37.4129128
 107.1482849  41.0361338  37.6528525 105.8001041  93.8740253  49.2450047
 105.1876831  94.6095181  49.2598963 106.6246414  94.2424583  49.5622253
   3.3117890  52.9704762  27.1731353   3.1954217  52.8378534  28.1139326
   2.5880474  53.5438299  26.9207549  81.5512180   8.0440563  43.4939957
  81.0240650   7.6570588  44.1929770  80.9108257   8.3416343  42.8477907
  34.0681481  66.1249065   9.5749557  33.3213711  65.7775307  10.0626922
  34.7849131  66.1346579  10.2092957  84.7808647  95.8015060  65.1889038
  84.9452591  96.3288879  65.9706163  84.7631836  96.4352608  64.4717789
  50.8124924  85.0581360  74.6921492  51.7474222  85.2232838  74.8140621
  50.7039022  84.9846458  73.7439728  13.5895526  35.3023005  82.3364925
  13.6115944  35.7701612  83.1712627  14.1178155  35.8400083  81.7465401
  26.9227147  33.9921474  57.8068066  26.4731789  33.1504464  57.8822327
  26.6629648  34.3263197  56.9482660 109.6118355 100.6317902  67.2814894
 109.2985821 101.4682198  66.9372559 109.2906475  99.9806881  66.6576862
   0.7841188 100.7522488  37.2234535   1.6775781 100.4328823  37.0971107
   0.2361948  99.9724388  37.1345305   7.3710698  51.0327005  27.2939539
   7.7188969  50.1658726  27.0845318   8.1457186  51.5625763  27.4820471
  32.4294138  34.2847633  56.0207224  32.2293329  33.4627867  56.4685535
  31.6177344  34.5149112  55.5685711 106.0752487  47.6343107  73.0878782
 106.0465622  46.6827106  72.9885149 105.2375984  47.8581429  73.4934092
  28.9413285  44.0407801  68.8852024  28.8380814  44.6021700  69.6535873
  29.6959257  43.4891081  69.0912914  52.8917313  18.7051654  87.3245716
  53.6175728  19.2997444  87.1352196  52.2287893  19.2598355  87.7357674
 110.6429005  60.1330042  39.3330860 111.2195969  59.6004057  38.7853694
 111.2046719  60.8358049  39.6597552  23.0180883   9.4840693  24.3797779
  22.5629115   9.7105116  23.5687494  22.3556328   9.0420824  24.9108458
   5.3076458  16.0810876  21.6333842   4.5714390  15.5254519  21.8893170
   5.6689644  16.3965094  22.4617505   5.6208968  27.7328777  55.9301615
   6.1561239  27.4757266  55.1794052   5.8332574  27.0902514  56.6070414
   0.0009269 103.0367088  24.1507244   0.8482002 103.4814930  24.1736674
  -0.4641593 103.3675766  24.9191332  96.1945915  51.7779446  50.5152655
  97.1034622  51.5020370  50.3966475  95.7163334  50.9644556  50.6757069
  55.7594538 100.2856350  64.1657066  56.0244226  99.7777271  64.9325466
  54.8461294 100.0394249  64.0192413   4.4554150  21.4931321  35.5481386
   4.2913869  21.9588542  36.3681579   4.1428256  22.0891786  34.8675156
  89.2051220  89.7258472  50.0381041  89.1621399  88.8598824  49.6325397
  88.7930202  89.6100807  50.8942604  72.5910282  82.4469566  55.4301357
  73.2309866  82.9835224  54.9624014  72.6133204  82.7763081  56.3286161
  33.8575864  16.5968919  28.2996464  33.3418226  17.0387185  28.9741921
  34.2482376  17.3084521  27.7923942  37.2971725  28.4509468  35.1529360
  36.8820405  28.0750418  34.3766689  37.7672458  27.7185678  35.5515409
  71.1191559   0.1688928  32.0471430  72.0453644   0.3971928  32.1262169
  70.7857847   0.7530528  31.3660765  23.8493204   9.3783879  60.8362055
  23.9370489  10.2312255  60.4105234  23.3631849   9.5609295  61.6403103
  99.2440796   3.0594862  61.9381237  99.9270535   3.5063881  61.4380646
  99.6545124   2.8610083  62.7797794  54.7647905  97.7101040  19.3563938
  53.9323568  98.1656647  19.2309368  54.8578644  97.6385307  20.3063655
   2.6047271  47.9080057  68.2611990   1.8219361  47.5909519  68.7116957
   2.2966495  48.1513023  67.3882008  36.7000556  40.0191116  42.7878094
  36.9868612  40.7893658  43.2783985  36.4499474  40.3612375  41.9295406
   9.4532764   7.4481815  36.8412423   9.8884451   6.6473556  36.5487742
   9.0357870   7.7954710  36.0530019  23.4066677  46.9755363  63.4534407
  23.2954478  46.4246368  64.2282772  23.3539939  47.8712511  63.7868357
  15.4290640  13.8249958  75.3461170  15.8623564  12.9757106  75.2612448
  15.4672122  14.0208507  76.2822866  99.1897392  95.5147362  36.0417247
  99.5835590  94.7013569  35.7261992  99.2825890  96.1252594  35.3103757
 109.5196629  29.5391965  63.2679558 108.7282658  29.5425081  62.7295208
 109.6661949  28.6157036  63.4726954  10.7244945   5.0663733  22.0082688
  10.9581590   4.2764908  22.4958324  10.7129836   4.7879609  21.0925245
 106.5495682  39.9793625  53.9973593 107.4433994  40.2472115  53.7839222
 106.5832710  39.0228724  54.0122843 105.8224106  25.6277323  56.5994310
 106.2808037  26.1994290  55.9835768 105.7719040  26.1379528  57.4077368
  28.4973979   4.5056501  69.1277266  27.7080035   5.0082058  69.3290377
  28.8793039   4.3068862  69.9826384   5.1436305  30.3168273  29.0748501
   5.6826001  30.5695248  28.3252597   4.7605145  31.1384082  29.3821955
  18.7750435   4.6231788  64.0863562  19.7113872   4.7586274  64.2317724
  18.5080743   5.3625089  63.5401440  99.6648407  32.8815794  46.8579531
 100.0468636  33.4010053  46.1505079  98.8027382  32.6266265  46.5292883
  27.2259951  16.4100707  30.6894374  27.7172637  15.5934739  30.5996728
  27.7240062  17.0467830  30.1767850  82.4869633 104.3665886  64.1916800
  83.2194328 103.7975216  63.9553165  82.5571728 104.4654655  65.1411676
   9.0100199   5.8027875  82.5726604   9.7956240   6.0613710  83.0545235
   8.5422301   6.6236442  82.4190426  17.2732162  18.3030951  15.1940858
  17.3263276  18.1715739  14.2474544  17.1395731  19.2452192  15.2978778
 100.6750202  76.1501598  65.1640558 100.3606701  75.5308294  64.5053864
 101.5933037  75.9142494  65.2956963  74.6997976  27.2060943  37.3441529
  74.3601322  26.3143158  37.2693944  74.9480391  27.4435258  36.4507127
   7.9655367  93.4762573  38.3406043   8.0463660  93.7857723  37.4384403
   8.2776761  94.2075157  38.8735747   6.4869976   1.3286778  66.4299631
   6.5833700   0.3987908  66.6355228   5.7122523   1.6033520  66.9204283
   7.2365880  41.6779375  26.4991641   7.5366998  42.3030996  25.8393669
   7.9741031  41.0787392  26.6143513  18.7951863   9.1348946  49.6219969
  19.3544030   8.3581197  49.6333218  19.3084717   9.7927248  49.1529226
  15.3622508  27.0099926   6.5408134  15.0863779  27.9062867   6.7326105
  15.0200224  26.8365240   5.6638753  35.0721550  62.0627642  25.0974751
  35.7287025  62.6749372  24.7651768  35.1316977  62.1412325  26.0495949
 101.2064934  14.8181570  48.1715822 100.3676224  15.2415299  48.3540487
 101.0150528  14.2021191  47.4644184   0.5841524  20.3296566  63.9558649
   0.8936579  19.5448816  63.5035801   1.3481409  20.6447482  64.4388485
  95.0412750  88.3292580  48.1538725  94.2705250  88.8763618  48.3050394
  94.7200680  87.4322701  48.2458830  91.3607311  95.0077057  67.2366428
  91.0929680  95.6159878  66.5477848  91.2479591  95.5011749  68.0490446
  87.4916458  83.0653095  50.5766010  88.3532715  83.1099510  50.9911203
  86.9715786  82.5165367  51.1636400   0.4119019  99.3693352  77.7114058
  -0.4709201  99.1167450  77.4411201   0.4318656 100.3204536  77.6055527
  31.3027096  14.4043708  76.9204235  31.3219738  13.4544718  77.0368385
  31.9714308  14.5780969  76.2579536   7.2792333  16.8604445  59.0709686
   7.4701554  15.9315324  58.9409590   8.0243635  17.1900928  59.5733070
  37.7826333   0.0825740  47.4848795  37.7441645  -0.6861931  46.9158936
  38.2970905   0.7208114  46.9906950   3.3427346  29.3468547  56.5489388
   2.5558403  28.9688730  56.1563063   4.0425581  28.7357855  56.3185644
 102.1759415   7.5441402  27.1731973 101.5624619   7.0842677  27.7462602
 102.8162003   6.8777436  26.9237733  91.5211391 104.5657063  61.9138861
  91.5256786 103.6086845  61.9322205  91.1413193 104.7871685  61.0636377
  13.0671990  22.3126769  41.2868547  12.2580767  21.8472528  41.0748816
  13.3608603  22.6753664  40.4511213   0.6786215  29.8653388  58.7265253
   0.5739326  29.5512605  57.8284025   0.8895731  30.7942414  58.6323595
 108.8931847  26.4523649  79.9759197 109.0430546  26.5545893  79.0360689
 108.4227943  27.2459698  80.2311611  86.2970829  50.8258581  10.2456176
  85.9712791  51.6159725  10.6766641  85.8331776  50.8009768   9.4087154
   0.4653924  23.0494547  76.5042067   1.3309696  23.1181693  76.1013603
   0.2524421  23.9444804  76.7684221  11.5711021   8.8853961  57.6676750
  10.8397233   9.0549868  57.0739126  12.2203255   9.5524716  57.4446297
  84.2356586  77.9258966  74.4779015  84.1851139  78.1805706  75.3992176
  83.6182117  77.1990585  74.3961048  13.7028170  27.7601194  61.1979723
  13.0068624  27.9760456  60.5772877  14.4910085  27.6904511  60.6593323
   4.3950385   3.9040047  49.3086290   5.1051396   3.6091098  48.7385225
   3.7559316   4.2946425  48.7126637  94.0385628   9.8742205  50.2358150
  94.4191933  10.5305505  50.8194065  93.1625652   9.7188950  50.5890083
 108.9890480  13.7728167  57.5296402 108.1631470  14.1449058  57.2203302
 109.1302490  14.1804111  58.3841324  85.9491253  97.6583958  54.0257549
  85.6424141  97.3239517  53.1829596  86.7710686  98.1044674  53.8216448
  19.7815573   8.5788995  45.7505894  19.5531237   9.5022726  45.8575106
  20.7349968   8.5570043  45.8324718  22.6232362   7.5955600  44.0786314
  23.0468631   6.8249005  44.4565916  22.9700279   8.3312231  44.5833731
  41.5645361  10.8397985  52.7794409  41.1931467  11.6990387  52.5794220
  42.4610567  11.0254955  53.0587196 102.9992676  92.6789951  60.1956987
 103.9304066  92.6809025  60.4174948 102.6503468  93.4627914  60.6201267
  12.3916113   7.0699638  82.1428013  11.6983843   7.3263043  81.5345573
  13.2040954   7.2581577  81.6730309   8.1968331   3.2646582  29.5075798
   8.9691705   2.7162910  29.3696666   8.0291432   3.2099444  30.4483867
   3.2091609   5.8445901  44.3997717   2.7694005   5.1496989  44.8896360
   2.5036666   6.2907326  43.9312983  22.9982948  11.2178469  31.7181158
  22.1578336  11.4125907  31.3034678  23.3520842  10.4872966  31.2108064
  26.7489600   6.5367514  16.6717362  26.8041062   7.4628657  16.4361453
  27.4241567   6.1139965  16.1410594  14.0313089  42.4642229  33.7412381
  14.9775028  42.3201084  33.7545991  13.8164473  42.5583172  32.8132224
 106.2326336  12.1109533  35.0875401 106.5468597  11.6326976  34.3202305
 107.0277596  12.3431444  35.5672216 102.4078751 102.1324635  50.4086447
 103.1486034 102.6477814  50.0892639 102.4487972 102.2190189  51.3610458
  17.4101210   9.9651849  26.1768436  16.7922604   9.4280136  26.6727543
  16.8899405  10.7084441  25.8715415 100.1518440 100.2799416  31.9713759
 100.1894760  99.4857979  31.4383221  99.2928505 100.2453899  32.3922920
  15.1040769  26.5811443  41.7232704  14.8190141  26.6697454  40.8138084
  14.9577284  27.4464178  42.1055174   6.3863307   8.9450336  58.2070112
   5.4411298   8.7960452  58.1819391   6.7608601   8.0798739  58.3727169
  71.4957094  12.9880106  39.0163922  70.7723522  12.4052501  39.2474222
  71.6005945  13.5543251  39.7809315   8.2169044  29.6923208  85.1327133
   8.0733955  30.4142666  84.5208073   8.0853593  28.9031816  84.6071815
  49.8709726  99.9018383  65.1132154  49.7785759 100.6257248  65.7326412
  50.4080725 100.2589130  64.4059277   7.1415424   1.3979834  71.6894770
   7.7788478   2.0950177  71.5338612   7.0670265   1.3499880  72.6425648
   9.3914855  42.7324104  15.9611487   9.0397042  42.9590654  15.1002717
   9.0022671  41.8813992  16.1624491  25.6703830  29.2728329  85.9606266
  25.2647877  28.7488008  85.2698994  24.9493337  29.7839355  86.3281822
  25.4797673  12.8745306  46.0500383  25.7594895  12.3561490  45.2955389
  26.2730837  12.9807889  46.5750027   1.7349787  26.4517307  74.3499374
   0.8017776  26.6219759  74.2219400   1.7648491  25.7839155  75.0350380
  76.9677496  74.3926144  49.1165638  77.7082968  74.8059464  49.5603800
  77.3229647  74.1043425  48.2757616  41.2504196  20.4217148  84.9845600
  41.3679361  20.7433438  84.0907001  42.0507526  19.9302673  85.1694298
  21.4421225  35.0283456  60.1769638  22.0266795  34.3054008  60.4047203
  21.8205881  35.4005480  59.3804359  96.5347004   3.8754553   6.6395485
  96.7386818   3.4534806   7.4741513  96.3506699   3.1498742   6.0429788
  48.1471682  65.4392624  42.5417900  48.8987160  66.0186625  42.4164867
  48.4147549  64.8487997  43.2460499  52.8249693  68.8516617  55.1960421
  53.0179977  68.6582279  56.1134052  51.8855572  68.6895847  55.1096201
  84.5473576 106.0978699  75.2228069  83.7376881 106.4970016  74.9044371
  84.2664337 105.5186272  75.9311819  35.1398849  37.4931669  31.3090897
  35.6168580  37.2158313  30.5269027  35.2856660  36.7889357  31.9407845
  25.6634665  16.6789985  80.9995461  25.9044814  16.0544753  80.3153515
  25.8928633  16.2382960  81.8177032 107.2992134   1.4453016  53.4069729
 107.4532509   2.3623228  53.1798649 107.1014881   1.4604223  54.3434048
  26.1328435  14.3203866  70.7611132  25.3636312  14.7030854  71.1831188
  26.1562920  13.4178424  71.0790682  95.4813385  16.4879143  63.3091545
  96.1596107  17.0865119  63.6219645  95.9561062  15.6918681  63.0701160
   1.5493488  12.4627399  36.4621043   2.3425391  12.9953408  36.5205622
   1.8692037  11.5708244  36.3264155 101.5094662  22.6703119  79.2163181
 100.5603218  22.5877452  79.3086576 101.6635799  23.6133957  79.1608429
  92.7334499  13.7441719  57.2724628  93.1884480  13.7486374  56.4303303
  92.8408527  12.8504562  57.5979900  59.3204165  24.8829579  71.8049669
  59.0769053  25.5373383  72.4597311  60.2774334  24.8988080  71.7949104
  18.7493885  24.7136188  26.5747738  18.8697350  23.7650275  26.6185999
  18.0354548  24.8929977  27.1866179 111.3612461  14.8278892  31.6667199
 111.9950008  14.3605983  32.2109866 110.6935120  15.1300085  32.2824121
   2.7681547  56.1897755  41.7038393   3.0445200  55.5661488  42.3753643
   2.6621041  55.6597519  40.9138632  21.2177300  24.6954536  73.9699793
  21.6282916  23.9841080  74.4615650  21.8926907  25.3722763  73.9192867
  15.7670879  12.4902284  54.1322327  14.8540592  12.4854720  53.8448477
  15.7910419  13.1305885  54.8432827  34.8113370  38.5039353  57.2242260
  35.6081510  38.7640119  57.6864815  34.3692017  39.3294263  57.0259523
  30.1920652  18.9020348  58.3864212  30.7177758  18.3418512  58.9574337
  29.3741560  18.4198606  58.2649136 103.3155823  67.3800611  46.6378164
 103.1791687  66.4711142  46.9050932 103.9459610  67.7238131  47.2708130
  23.3693743  77.7845335  62.6657104  23.3235669  76.8386412  62.5263453
  23.0684280  77.9088688  63.5658216  97.8193951  21.7096281  11.2631702
  97.4278927  22.4051428  11.7915809  98.3162975  21.1836362  11.8897903
  50.6106567  23.1419444  24.5512462  50.6263542  23.9257336  25.1004815
  51.1707401  22.5162792  25.0106788  50.2622128  83.4783936   8.2084781
  49.8769712  83.5066128   9.0842795  49.9241686  82.6695728   7.8240758
 108.5193539  50.1213217   9.7034204 109.2250919  50.1268387  10.3500485
 107.8023148  49.6571493  10.1354229  37.6395106  26.4876914  56.8557358
  38.5071087  26.4853573  57.2600889  37.0711184  26.0749006  57.5059414
  10.3665853  32.5330997  30.6523871  10.4691613  33.3218312  31.1849380
   9.4244069  32.3641920  30.6535268  55.1465082  79.0225792   1.3045877
  54.2869473  79.2680454   1.6468345  55.1833534  78.0718231   1.4091408
  12.6040876  30.9038424  29.9275875  12.0050490  31.6260481  30.1168108
  13.4767652  31.2868309  30.0169611   0.2493433   8.1567878  24.2228222
   0.7836397   7.5415397  23.7205982  -0.3324980   7.6009601  24.7412300
  94.1666603  38.0344677  63.6456537  94.3890190  37.2638869  63.1231689
  94.9186420  38.1559467  64.2253017   6.1536163  16.4053512  38.8666701
   5.7453299  15.5510688  39.0071487   6.8992579  16.4160371  39.4667840
 112.2233109  11.5311801  49.3042707 112.7776904  10.8214283  49.6285343
 111.9857858  12.0267344  50.0880051  46.1896515   2.2467260  47.5135612
  45.6037617   1.6607994  47.9927874  46.9993067   1.7461479  47.4129963
  10.0343704  41.6762161  76.2914658  10.0485432  41.5364695  75.3446293
   9.1409492  41.4535475  76.5530872  89.6988297 102.9683113  64.5022726
  90.5547810 102.5663185  64.3540192  89.8955822 103.8829899  64.7044706
  28.1735253  57.9413557  40.3106260  27.9341912  57.6953793  41.2041855
  28.1458926  58.8981533  40.3100395 105.6793785  36.2836051  78.0526829
 106.4203930  36.1766171  77.4562979 106.0699368  36.6077828  78.8642263
 100.3153610  48.2348156  87.6203346 100.0431252  47.5174236  88.1925869
 101.0396004  47.8724766  87.1100140  99.3952084  50.0982809  60.4485464
 100.2745819  50.0449467  60.8228302  99.3055630  49.2971134  59.9324799
  20.5519915  97.9141426  64.7262478  21.2816048  98.5325718  64.7642565
  20.8844852  97.1248913  65.1537466   3.3249578  34.4923139  71.2084055
   3.6522540  34.0395117  71.9856358   3.9088061  35.2438021  71.1053801
  13.2990718  17.4936092  43.0939388  13.4730661  18.4299421  43.1900549
  12.5303900  17.3353481  43.6419487  19.9995780  28.8603258  49.1177988
  19.9484658  29.1864491  48.2193232  19.3302953  28.1775141  49.1631985
  20.1304007  29.9066305  87.5864410  19.9330568  30.7899165  87.2748470
  20.6828141  30.0420880  88.3563232  65.2151060  88.8026905   9.7421741
  66.1068106  88.8191605  10.0897753  65.0689173  87.8879738   9.5009983
  13.6856973  52.2587252  47.7706146  14.2318535  51.6855240  48.3085585
  13.9451993  52.0613384  46.8706512  32.6286268  35.1980686  58.8835955
  33.5056829  35.0371027  59.2315817  32.7801991  35.6210589  58.0384111
 101.9571400  20.1753306  38.4984994 101.4312649  20.1383162  37.6995540
 101.3857841  20.5943179  39.1421127  33.1124902  28.5981345  -0.1137987
  33.6972666  27.9854131  -0.5597141  33.0386686  28.2540274   0.7763547
   6.9818574  86.3583851  27.6504588   7.7564943  86.6115379  27.1483803
   7.2980207  86.2682343  28.5494280  23.9368248  25.9906673  38.8254333
  24.5772934  25.2798629  38.7973452  23.7025309  26.1383009  37.9091668
  28.8054037  35.4641795  80.5497551  28.8767314  35.6166506  81.4920330
  27.9496789  35.8220434  80.3133202  37.0534229  40.7365942  71.6068935
  37.6597357  41.4308357  71.3487244  36.2307024  41.1916828  71.7865086
 102.4018574  61.4713001  72.8571701 101.9111729  62.0009184  73.4856367
 102.0089054  60.6006908  72.9192448  46.0477114  21.1093116  51.3326073
  46.8595982  21.3564014  51.7753410  45.7836533  21.8980074  50.8588314
  69.2463446  13.3466327  61.8054819  69.7790718  14.1273546  61.9568396
  69.8754835  12.6744735  61.5435266  49.8041487  12.1323550  37.9670262
  49.0231419  12.6160312  38.2359457  49.7654009  12.1275473  37.0106220
   7.7246612  51.6958284  50.3717804   7.3742896  50.8107567  50.2711821
   7.0723736  52.1527243  50.9028196  17.8882885   3.3564910  69.0938759
  17.1940947   3.1745416  69.7272968  17.7183938   2.7513832  68.3719254
  20.7786322  18.8243008  38.7532306  20.3308249  19.4772518  38.2153106
  21.1519814  18.2091916  38.1219745  20.5154657  20.6011295  57.9691839
  20.2049470  20.3935623  58.8505030  19.7187066  20.7852888  57.4716949
   8.0916280  34.3873906  60.2072430   7.8037405  34.0201283  59.3714952
   8.7685668  35.0211453  59.9698782  46.0292625   9.7437602  46.7732716
  45.3683996   9.0647990  46.9092989  46.3598156   9.5826226  45.8895254
  45.9693956  27.0030570  52.8503370  46.6171646  26.3581395  52.5662422
  46.4696980  27.8112173  52.9634905  28.4222603  39.5019913  69.1197252
  28.9942908  38.7408137  69.0216446  27.5388265  39.1350031  69.1528749
  20.7116437  43.6860418  36.4460301  20.8667207  44.3861437  37.0800972
  21.5815139  43.3301306  36.2646890   5.5462658  25.3343749  64.6103764
   5.9556949  25.6546974  65.4141140   4.9378136  24.6567798  64.9051332
   0.7433847  45.9155035  72.6332855   0.0717353  46.2327814  73.2369852
   0.6764065  46.4950514  71.8744230   7.6225621  37.1727371  71.2047958
   6.7787194  36.7748022  70.9907627   8.2553995  36.6955686  70.6680822
  59.0515852  48.0907679   3.4474596  59.2404222  48.3924675   4.3360254
  58.2993078  47.5073910   3.5473964  69.4540310  98.3411026  52.0228672
  69.0855932  98.9114571  52.6975346  69.8164654  98.9426231  51.3724566
 108.0309677 104.3883610  61.9598007 107.4127579 105.0923634  62.1558523
 107.5205040 103.7549210  61.4554071   2.2727081   5.5037099  40.4012632
   3.0158544   5.0634056  39.9888349   2.6555306   6.2694174  40.8294821
   8.9610296  17.7886569  84.9287701   8.6933386  18.6331546  84.5662880
   8.3364666  17.1622312  84.5630646  46.8294048  11.3986695  76.8877983
  47.3514462  11.0443735  77.6076460  47.1925879  10.9873462  76.1034870
  42.5650978   8.5282499  63.3927345  42.2326279   9.3411511  63.0120897
  43.4660244   8.7321913  63.6436701  43.5253668  29.9306035  61.5066099
  44.2347717  29.9758315  62.1476460  43.9460754  30.1269269  60.6695366
  10.4156053  22.2345638  38.6841917  10.2444625  23.1763315  38.6881375
  10.9471273  22.0910001  37.9011822  93.4158993   7.8698838   7.3979014
  93.9537430   7.1835864   7.7927977  94.0275288   8.5868573   7.2303271
  87.7961349  20.5927873  34.4235158  88.6953545  20.2711368  34.4882417
  87.8127098  21.4410615  34.8666716  45.2863359   9.8050529  74.9911928
  45.3554296   8.8790923  75.2236891  44.4123888   9.8918480  74.6105194
  44.2913055  25.2992415  73.6865282  44.6987629  26.0804987  73.3125639
  44.9327230  24.9735236  74.3179750  14.8226714  10.7861543  68.1044722
  15.1798236   9.9030423  68.1982183  14.2984927  10.9176373  68.8945198
  22.0850706  21.3134694  50.6594849  22.9371762  21.0207438  50.3362846
  21.4593530  20.9918880  50.0104094  24.7904277  51.9191408  36.8700790
  24.8906469  52.8374481  37.1208763  24.0042710  51.6289473  37.3326540
  26.7346072  17.9286408  32.9375792  26.9561481  17.3635101  32.1974587
  26.0460043  18.5029995  32.6026583   5.1546800  40.6734419  59.1151333
   4.9458021  41.1186695  58.2939291   4.4270051  40.0664425  59.2503071
   1.2599769  52.7483845  62.7168369   1.1119921  52.8644037  63.6553860
   1.6549142  51.8796539  62.6422262   8.2417619  48.5030460  51.0563803
   7.4469042  48.0822325  50.7287359   8.2160366  48.3598328  52.0024538
  14.6914458  36.9072628  48.5162687  15.2604246  37.6768637  48.5307360
  13.9628410  37.1587086  47.9486942   7.5451601  12.2616923  12.7172792
   8.2233512  12.3855245  13.3813214   8.0221295  11.9756210  11.9382441
  47.0792389  51.0848999  18.8487017  46.7437553  51.0297441  19.7434878
  46.5226555  51.7376709  18.4240437  24.3954444  39.3361783  80.1351070
  25.1076889  39.3844604  79.4974518  23.6102080  39.5571160  79.6342850
 103.4953690  44.5564222  86.7790508 104.2488956  44.3788433  87.3419762
 103.4514809  45.5114508  86.7317963 108.4924221  71.9464445  58.5678768
 107.8644371  71.7026091  57.8878736 108.9561939  71.1334276  58.7682581
  11.1024117 102.6419353  51.0164356  10.4350138 102.0428276  50.6819487
  11.7769599 102.6522827  50.3373861  21.5575051  25.6688356  65.9149885
  21.2070060  26.4881563  66.2644100  22.4927211  25.8378124  65.8007526
  15.3463376  39.2631674  42.8409386  15.8335841  39.8036170  42.2190571
  16.0066557  38.6874390  43.2266140  36.9076896  13.8702118  41.6643906
  36.9299603  13.3789718  42.4856186  37.4087381  14.6650708  41.8471003
   8.0487216  44.3038368  66.5033340   7.6183891  44.4552851  65.6618404
   7.6837057  43.4750271  66.8132830  60.2866125  25.8942795  40.3898859
  60.3416967  26.3821578  39.5682001  59.6665001  26.3919520  40.9228182
  33.9260554  16.3560021  20.3090787  34.1959167  17.2701168  20.3974104
  34.6467853  15.8554757  20.6915116  18.4910512  25.8423758  49.6613741
  17.6036727  25.5665755  49.8909950  19.0129256  25.6412530  50.4381800
  61.7730951  89.6715355   6.0291559  61.3863325  89.4919872   5.1721787
  61.3366413  90.4699039   6.3263887   6.4157873  65.5683994  41.2658167
   6.4936841  64.6164560  41.2028313   7.0460182  65.8160400  41.9423628
  38.8873434  24.5559740  73.9205933  39.7866702  24.7035575  74.2132711
  38.5320139  25.4345417  73.7860918  47.3034620  70.9410954  37.7974105
  47.8605366  70.5923414  37.1015143  46.4851618  70.4509735  37.7174258
  79.0739536  98.8376808  70.3336763  78.4293175  98.7059784  71.0288954
  79.4693327  99.6866989  70.5313540 100.0325584  17.7409446  40.0540733
 100.4654408  16.9085836  39.8642826  99.7719765  18.0764413  39.1963005
  35.1824522  11.2192988  58.0696964  34.6978879  12.0217812  58.2632160
  36.0620713  11.3826859  58.4100008  63.7870216  82.4372578  36.3335466
  63.5276127  83.3548546  36.4169812  63.8549948  82.2924423  35.3898096
  20.1687551  31.7064548  20.9505630  21.0810494  31.4344072  21.0502553
  19.7769046  31.0318804  20.3959155   4.1210297  92.9547691  36.3947105
   4.8654068  92.3534012  36.3724613   4.1367710  93.3228016  37.2781897
  36.6070437   5.4711002  44.8405552  36.8736124   6.3562214  44.5920944
  35.6537962   5.4747999  44.7537374  29.9615622  18.5722148  49.7921801
  29.1088438  18.1745923  49.9682522  29.8598456  19.4855309  50.0600243
  86.9951248  60.4713821  70.8560038  86.3387871  60.0711107  70.2857018
  87.0361710  59.8923922  71.6171312 100.9041500  17.6499343  76.4517689
 101.6552734  18.1732750  76.7313242 100.5677128  18.1066024  75.6807327
 102.7017021  24.3909478  58.5400438 102.1057796  25.1336360  58.4424543
 102.7293587  24.2283368  59.4829226  90.9382534  96.3694191  35.3032374
  89.9868488  96.2990952  35.2250671  91.2576485  95.4804420  35.1485085
 103.7956619  24.1311359  68.7320995 104.6292973  24.5841503  68.8588047
 103.7740421  23.9262867  67.7973270  23.6923242  51.5322971  55.3461552
  24.6114540  51.5241337  55.6132984  23.5831714  52.3661518  54.8889828
   7.3166829  50.8099413  46.2506723   7.9033375  50.9923220  45.5166388
   7.4954754  51.5090275  46.8795919  31.0001111  63.8744545  41.1486340
  31.8441796  63.8534737  40.6977034  30.8820891  64.7922659  41.3934326
  95.3205681 103.2074642  50.8778858  95.3102016 104.0286446  51.3696003
  94.9856758 103.4422493  50.0124693  92.0817947 106.1125183  58.0093813
  91.9872952 105.2564430  58.4270287  92.2528362 106.7147160  58.7334967
  65.9779596  99.2104149  40.4915524  66.8815470  99.4117928  40.7348824
  66.0172987  99.0303993  39.5522571  22.9808927  10.3699684  53.1445122
  23.7542462  10.9228694  53.2561159  22.4495292  10.8297503  52.4945211
 105.0868607  25.9713650  51.3677263 104.6746540  25.3127265  51.9267559
 105.0042248  25.6190228  50.4815769  20.7822633  50.7677364  67.7497482
  20.6403375  50.9010983  68.6869240  19.9091673  50.8353662  67.3632717
  50.5604601  34.9014258  77.4972343  50.5252266  35.7959056  77.8361988
  50.1139975  34.9479032  76.6518116  78.1488228 100.7353687  62.2703505
  78.6107302 101.0325909  63.0542755  78.1118059  99.7831631  62.3607349
  42.7338839  22.9632640  73.5095167  42.4901104  22.9990220  72.5845718
  43.1005621  23.8279486  73.6941671  19.3659413  11.3490856  53.2662201
  19.1513968  12.1514118  53.7421131  20.1881671  11.5486896  52.8186369
  28.5625339  18.7133014  53.5530329  29.2130184  19.3525541  53.8436508
  27.7955222  18.8870919  54.0986729  26.0240221  35.4789805  47.4982929
  26.2047911  34.5688295  47.7332020  26.1267829  35.9627962  48.3177996
  93.8436317  78.3063984  68.0761957  92.9990196  78.4940004  68.4856606
  94.4864082  78.4738922  68.7654114  68.9097023  41.7987871  87.3541832
  68.7673330  42.3768234  88.1037426  68.2658720  42.0842123  86.7059231
  87.4151039  99.0300083  64.4274950  86.6467285  98.5023785  64.2096949
  88.0043793  98.9140511  63.6821461  14.0064812   4.9627191  85.4422379
  14.8226428   4.5589632  85.1471138  14.2486823   5.4401463  86.2357235
  92.1254921  10.2454066  70.1863527  91.1795902  10.3408659  70.0750208
  92.2212029   9.7136742  70.9765005  89.5512199 105.3521538  53.2254887
  89.7513008 106.1148930  52.6828671  89.9613762 105.5439472  54.0688276
  29.3235183  35.7896113  37.9718161  28.4951329  35.3360462  37.8159714
  29.2687845  36.0824800  38.8814664  46.6470861  11.8160725  18.5973597
  46.6210604  10.9643567  18.1613135  46.4963531  12.4491990  17.8954601
   8.9187056  54.2699480  57.0146656   8.9377576  53.3648396  56.7037868
   8.7372226  54.7886229  56.2309122  38.0836535  30.8620334  39.2658710
  38.0114961  30.4320693  40.1180172  37.6513195  30.2624846  38.6577129
  24.1211677  29.3772030  66.7063999  23.4209299  29.6948218  66.1362982
  24.8428178  29.9895620  66.5633249  33.2307625   8.5698438  70.7918501
  32.7920341   8.9970696  71.5275335  32.5304651   8.3981556  70.1622963
   6.7257839  15.1670563  48.2897425   6.0930431  14.4499874  48.3307505
   7.5146133  14.8142600  48.7014627  34.4330835  23.9166474  28.5588717
  34.3341064  24.2554617  27.6691294  33.8172865  24.4309592  29.0808964
   3.2929000   7.4922919  72.0241070   3.0669925   6.8617070  71.3403225
   3.1731522   8.3472002  71.6105556 101.0738182  39.0647888  76.6470480
 100.8833885  38.1343436  76.7663717 101.1383343  39.4120765  77.5366879
 111.6521835  48.2043219  56.9236946 112.0458317  48.7514496  56.2440491
 111.8701649  48.6471987  57.7438021  28.7606740  36.3693023  65.9163809
  28.9411449  37.2658992  65.6339359  29.3227601  36.2411737  66.6804934
  28.6608171  29.8771024  30.1311421  28.7038684  30.8264637  30.0167274
  27.7943325  29.6354747  29.8039556  26.0023117  21.0752892  69.5805407
  26.5199995  21.7608500  69.1583538  25.5675793  20.6236768  68.8571548
  11.6528177 100.9363079  67.3220301  11.4703858 101.6897392  66.7605257
  12.0075262 100.2750397  66.7277813  27.8120995  17.5678337  58.4613800
  27.4421644  18.4284580  58.6581182  27.2079873  16.9482446  58.8705158
  18.8259327  15.8474720  65.1853514  17.9058766  15.6647003  65.3759432
  18.8008046  16.5423226  64.5274925  16.0299742  10.4825151  33.6043596
  16.8211317  10.1596069  33.1730461  16.3533628  10.9968174  34.3440533
 105.7495308  96.0516834  63.7439394 106.3920116  95.3589153  63.5905647
 106.2726974  96.8484974  63.8312101  92.7365685  47.4368477  82.9247952
  92.4637985  47.0789242  83.7696171  92.7477646  48.3845854  83.0585670
  18.1878746   1.6365570  60.3717756  17.6720369   1.7447895  61.1707926
  17.9264009   2.3711169  59.8165417  36.2610316   6.1013275  27.9206729
  36.4235878   5.8163023  27.0214677  35.9735060   7.0103437  27.8355169
  18.1196177  40.8989620  56.4707279  19.0643573  41.0464573  56.4266539
  17.7556419  41.4750719  55.7985306  76.9696474  10.8501649  66.5966892
  77.8919888  10.8582079  66.8525314  76.8965530  11.5448618  65.9422588
  30.8754754  45.2809095  16.5737522  30.3140140  44.8356438  15.9391427
  31.0904837  44.6064377  17.2180259 109.3685627  42.0095730  45.5056667
 110.0290298  42.5379515  45.0575304 109.8531723  41.2563610  45.8433914
  96.6397095  56.8108559  85.6377220  96.8304348  56.5323019  84.7420311
  97.4886131  57.0753241  85.9921932 100.3682327  28.4690094  42.1621943
 100.6037998  28.9563465  42.9516506 100.0063610  29.1298699  41.5718174
  10.7909513  12.4083614  48.0035543  11.6780806  12.2270417  48.3139658
  10.2289808  11.8593049  48.5503244  24.0368652  34.2679882  43.5354376
  24.1488600  33.4016800  43.9268446  23.3115411  34.1608405  42.9200888
  71.5769863  63.2811165  18.5764408  72.5013733  63.4957600  18.7016177
  71.5231705  62.9721928  17.6720619 107.0038223  81.4575958  52.0348120
 107.2083950  82.2809696  51.5916061 107.7896595  81.2576962  52.5434589
  26.2438893  20.1607370  63.0349350  26.3177681  19.7598732  62.1688652
  25.7557678  19.5214796  63.5538960  30.7612085  57.9469252  69.1851997
  31.2077975  58.2618189  68.3993053  31.4527988  57.5394726  69.7066593
  71.0722685  97.5120449  83.8826466  71.1515951  96.5814495  84.0922546
  71.7990494  97.6856041  83.2844067  27.7619505  44.4574690  31.7715645
  27.0562863  44.4883728  31.1255646  27.9325175  43.5237789  31.8954778
  91.4744091  19.1000330  69.6091366  90.7805252  18.5123575  69.9081326
  91.8557262  18.6548984  68.8523817  87.1292210  97.7655315  49.3317652
  87.5509834  98.6122036  49.1851234  87.5866985  97.3978329  50.0879002
   2.6678553  20.7995868  72.6740789   1.8488669  21.2457395  72.8895760
   2.3954815  20.0178409  72.1935415  38.0011487  36.3061738  80.8440113
  37.2784376  35.9372592  80.3362560  37.8858018  35.9442854  81.7226315
  33.0885839  19.7338176  41.9785213  33.1275415  18.8067389  41.7434931
  32.8977942  19.7352993  42.9165125  43.1398106  32.1312976  16.7256677
  43.4881926  32.3395133  17.5925624  42.2365046  31.8602157  16.8893313
  24.9948239  22.3480248  59.3898106  24.1292095  22.2718501  59.7912359
  25.2764940  23.2394814  59.5952320  22.2671318  20.4420686  33.2475948
  22.6150322  21.3237381  33.3812189  21.3270092  20.5291224  33.4051490
  12.6728928  18.0038583  71.9828367  13.1420135  18.8093209  71.7651510
  12.3656464  18.1403863  72.8790474   0.0975305  50.2920866  70.0672245
  -0.0892180  51.1386061  70.4731321   0.6196577  50.5070591  69.2943048
   9.8919165   7.7867723  45.1461840   9.2281127   7.1277457  45.3493595
  10.3464293   7.9326332  45.9758663  22.6430035  22.6824594  75.2045631
  22.0634961  21.9221663  75.2531052  22.8240657  22.9043078  76.1179304
  15.6633437  34.8911929  28.8370299  15.8172238  35.5292678  29.5337439
  14.7380400  34.9965835  28.6158156 110.9174538  14.8363876  56.0762882
 111.0746002  15.6186604  56.6050482 110.2082348  14.3798733  56.5288734
  56.8028736  12.8719699  58.1047916  57.6783180  12.8094912  58.4867859
  56.2229300  12.5093138  58.7743998  51.8073654  89.4341660   7.0483661
  51.9509840  88.6457920   7.5718927  52.6809692  89.6844578   6.7477024
  34.2135978  22.2175860  21.2697935  33.6840653  21.4725566  21.5539694
  34.0914822  22.2501969  20.3209758  13.2579958  23.8874602  71.6389847
  13.7697506  24.0575624  72.4298096  13.8101792  24.2034221  70.9237957
  20.1366830  30.3844643  46.9677687  19.6924031  30.8621025  46.2672615
  21.0365009  30.7102060  46.9464636  48.0776596   3.8904613  24.4337368
  47.8796387   4.2587620  25.2947688  47.3031855   3.3742946  24.2101455
   2.8592768  49.1436481  64.0487957   3.4519234  48.4192944  64.2495775
   2.2990938  48.8078594  63.3490276  55.7392263  15.1764202  87.9507923
  54.8673010  15.2056336  87.5569439  56.0298300  14.2734575  87.8225708
  17.0921314  44.8172140  34.8371744  17.8204465  44.7798204  34.2171812
  16.4280236  44.2391157  34.4616866 102.8299904   9.2188483  74.7858000
 102.7771378   9.9786788  74.2060614 102.5873470   9.5577109  75.6475019
  43.7480402  70.8795023   5.3050053  43.6704159  71.2781668   6.1717653
  44.6767664  70.9587193   5.0872397  33.6214280  11.4094853  21.7036438
  34.1337347  10.7270265  22.1372604  33.4483027  12.0523989  22.3913360
 108.5515308  35.7179713  48.5451984 108.4422016  35.1572275  49.3132162
 108.5986710  36.6052485  48.9012194   3.4667781  28.8565183  16.3781536
   3.2145032  28.5093331  15.5225527   3.9111292  28.1274796  16.8109179
 109.9007416  83.2587242  36.6437864 110.5620670  83.9469433  36.5713954
 110.0461197  82.7052116  35.8765054  12.7937019   9.7641087  81.5571594
  12.9491317  10.7086003  81.5601921  12.3952115   9.5896864  80.7045174
 105.8214760  39.7365522  34.9247384 105.6770706  38.7907362  34.9532318
 106.4301968  39.9076581  35.6433535  25.0571990   7.5477237  54.2473269
  25.0391555   8.1454253  53.4998941  24.8066449   8.0909848  54.9945354
   3.7858656   0.3650134   0.3522554   3.5685223  -0.3899274   0.8991174
   4.7423634   0.4003571   0.3619659  46.2254000   6.4677840  74.7888279
  46.5507984   6.5968388  75.6797218  45.2922392   6.6741079  74.8424387
  18.5756421  18.7525487  73.4860420  19.4501090  19.0964437  73.3036232
  18.4472001  18.9087713  74.4216299   3.8225251  75.3829718  56.9851112
   4.1119245  75.0712061  56.1276293   2.8905991  75.1667404  57.0165730
  30.7270908  54.0193033  51.9784689  30.2498221  54.3731356  51.2279749
  31.4636922  53.5455704  51.5921688   7.5958860  35.9375191  86.8643475
   8.5122800  36.1565614  86.6956043   7.2314650  35.7492208  85.9994984
  18.1799793  17.1088231  89.5944881  17.6266050  16.4662111  89.1505718
  18.6596274  16.6006529  90.2486515   5.7513469  43.0296993  37.5715232
   5.3783983  42.7825546  38.4177279   5.0161082  42.9762793  36.9609499
  11.4518189  16.9650745  56.3508511  11.2589169  17.9026270  56.3548374
  12.3950863  16.9152808  56.1959314  25.4875064  12.2233009  28.4927654
  26.4053535  12.4460149  28.6482787  25.5208278  11.4428401  27.9395914
  47.6521587  53.6627722  30.0343323  46.9673157  54.1022253  30.5384183
  47.7927351  54.2298698  29.2761326  30.0719118  63.0538607  47.4252558
  30.4057217  62.7317476  48.2625389  29.2719722  62.5497055  47.2764063
  17.6130736  70.3051186  48.0901861  16.7233610  70.1047230  48.3808470
  17.9239833  69.4918776  47.6924372  14.3009925  11.5152752  65.1800966
  13.6385417  10.8245885  65.1615620  14.8139632  11.3340700  65.9676600
  22.8578448  56.4563465  85.1454067  22.3681021  56.6751099  85.9382057
  23.2164073  57.2922039  84.8470783  44.1427898  56.9438553  53.0846500
  43.8113165  56.8452835  52.1921015  43.6170101  57.6508808  53.4586906
   5.6680888   9.6243078  41.1031532   5.3494889  10.4381669  40.7128239
   6.6038418   9.6124619  40.9020138  39.4665670  20.0997877  30.9122515
  39.8575592  20.8433437  31.3710332  39.8821664  19.3314469  31.3036084
  44.1582823  49.2295742  50.7429981  43.6831903  49.6342421  50.0172138
  44.9676752  48.9051723  50.3481865   7.3206502  68.5840893  17.2303212
   7.8503799  68.7670612  18.0062985   7.9584414  68.3636236  16.5514624
  30.0961089  19.5661819  36.1029458  30.8194876  19.3179703  35.5273175
  29.3267775  19.1504395  35.7136917  27.3476458  70.0543785  37.6719260
  28.1426620  70.0576019  37.1388507  27.4829698  69.3444157  38.2995200
  24.9871516   8.2487875  36.1852932  24.7383761   7.3259324  36.2370777
  24.5629168   8.5668564  35.3883672  49.9974728  56.0482025  29.5825982
  50.1794910  55.3078604  29.0038157  50.5461597  55.8919001  30.3511977
  36.9069743  41.1421490  76.6072464  37.1497035  41.6544390  75.8359623
  36.7119122  40.2701855  76.2639427  46.0043097  71.4137316  48.0578518
  46.0659981  71.7260933  47.1551609  45.0927687  71.5710592  48.3039761
  14.3531811  17.4057758  35.0059080  13.6979365  16.7560267  35.2602887
  14.7099006  17.0759869  34.1811514  30.2166390  64.6971750  21.1389828
  29.7967052  63.8603687  20.9398794  29.5729899  65.3560925  20.8786392
  42.7944946  54.6596241  33.4449220  43.1937313  54.1066790  34.1165590
  41.8622494  54.6648169  33.6619925  21.3759041  16.5719128  48.7700987
  21.6653466  16.7675567  47.8789330  20.8966684  17.3541248  49.0434313
  29.4139647  20.8841062  51.0090446  29.9329662  20.4473853  51.6844273
  29.6032381  21.8150711  51.1261272  42.8304958   4.3642280  79.7534990
  42.5399923   4.8547173  80.5224323  42.7720261   3.4463716  80.0187397
  26.2345672  91.3577175  24.9221206  25.6112933  90.6330395  24.9731493
  26.2873912  91.6917038  25.8176064  61.5593624  76.8550634  57.8979635
  61.2335300  76.2823868  58.5923052  61.5161133  76.3195133  57.1057844
  22.0432520  51.9715214  85.1052952  21.9652414  51.4740849  84.2912292
  21.2100673  52.4363184  85.1827526  17.0829213  17.9427350  71.0350513
  16.2309766  17.7792752  71.4396524  17.6253784  18.2812059  71.7473745
  62.6655769  54.5840073   9.8877871  62.1927595  54.4338083  10.7063925
  62.2035170  54.0487432   9.2426324  27.5763440  43.2611704  21.6714597
  27.3303413  43.9817333  22.2515512  26.9953823  42.5429010  21.9220734
 102.4953938 103.5201645  76.3021278 101.9407558 104.2456436  76.0152769
 103.3253956 103.6582661  75.8457756  34.9626827  43.4079933  31.7629647
  35.3260827  42.5224590  31.7630935  34.0146017  43.2778168  31.7422342
 110.3025246  49.0820456  54.0201330 109.7673607  48.5439062  54.6034241
 110.7897091  48.4502840  53.4912109  28.4951138  30.1176119  83.8284302
  27.8311610  30.2180743  83.1462955  28.1969190  29.3685961  84.3444538
  30.7553291  53.9828253  55.6531906  29.8461223  53.9792252  55.9524536
  31.0907269  53.1197357  55.8957052  45.9360361  62.2994947  43.6763048
  45.3349972  61.7964745  44.2258072  45.4353666  63.0742311  43.4206676
   3.3589211  48.6435843  38.0345225   3.5282058  48.2394314  38.8855433
   2.5654858  48.2117939  37.7179003   6.3435888  55.2986574  53.2392168
   5.8804560  55.9103203  52.6668406   6.9204593  54.8107100  52.6515436
  11.4375699 105.2903748  81.2958622  12.3459625 105.5839157  81.3657856
  11.0542667 105.8553505  80.6249523  10.6310010  60.6223011  72.8061247
  10.2815354  60.4551601  73.6814356  10.4373217  61.5454292  72.6431561
 108.7583351  22.7414489  66.0758018 108.2586670  22.2023988  66.6889858
 109.2531013  22.1117306  65.5515003  16.5525079  54.4855165  28.4080338
  16.9006646  54.5447206  27.5183630  17.3275375  54.4956017  28.9696908
  41.1983013  37.5215530  42.2696638  40.5834627  38.1131744  41.8358564
  40.9997654  37.6111603  43.2017517  25.4433107  60.0269222  60.7437372
  25.2650690  60.3024054  59.8445320  26.2037659  60.5453300  61.0067797
  53.6174631  16.2719166  77.3001146  52.8344727  16.3095129  77.8494310
  53.6197758  15.3822565  76.9469404 111.4289665  35.3504872  50.4462290
 112.0884609  35.6705594  51.0617352 110.6407070  35.8503532  50.6584072
  54.0538025  11.7662859  44.9600744  54.2774057  11.6761005  45.8864117
  53.1470585  11.4651442  44.9021387  26.0005713  37.8993464  69.5918560
  25.8883739  37.0103312  69.2552614  25.1766396  38.0917454  70.0394583
  10.4796529  48.0255127  45.8496332  10.2808261  47.7861452  46.7548418
  10.7577527  48.9400768  45.8992910  17.1885884  34.5506930  66.5254593
  17.5982428  34.4052458  67.3782539  17.8691530  34.3252134  65.8912468
  33.0579495  49.8902464  48.9367533  33.5688400  49.6176243  49.6989202
  32.1783662  50.0453186  49.2810154  23.1386566  71.3383436  49.6514893
  22.4706459  70.9007359  50.1792097  23.8535595  71.5100622  50.2643967
   9.8877990  64.1849804  78.9600611   9.5326114  64.2464828  79.8467922
   9.2313242  63.6868334  78.4731102  30.5767155  41.1384106  50.9361649
  30.9550095  40.2735376  51.0946465  31.2079382  41.5747404  50.3639746
  14.3247151  42.5799513  20.6599951  14.4903684  41.8206692  21.2188125
  14.0597212  43.2709074  21.2671113  38.4453034  48.3898878  42.1519613
  38.7840343  49.2682266  42.3252153  39.0194345  47.8089952  42.6511288
  35.7468414  21.4960957  55.4873800  35.5478525  21.5692234  54.5539522
  34.9188733  21.2324166  55.8888435  65.7247066  25.4189515  43.1016684
  65.5902100  24.5028138  43.3442307  65.4701996  25.9129190  43.8810635
  14.0889990  36.8139291  35.7553864  14.5578599  37.6484323  35.7574105
  14.1179085  36.5207529  36.6661263  42.4274492  38.3887219  61.3716745
  41.8451834  37.6690173  61.6150284  43.0521774  38.4462857  62.0946074
  34.8975849  10.9264386  71.3261032  35.2509546  10.1421762  70.9062290
  33.9844656  10.9600043  71.0409403 106.8540287  71.8972254  45.4107761
 107.8050041  71.7900467  45.3907681 106.7194557  72.8448200  45.3969049
  33.3799195  59.9773312  51.9551039  32.4436569  60.1740026  51.9240665
  33.6480737  60.2277040  52.8392076  12.1564996  69.5324373  49.3152142
  12.8919280  69.5505762  48.7028027  12.5497341  69.2941141  50.1547384
  17.6162291  72.3839378  57.7509356  18.0313492  73.1593084  58.1286955
  16.6773391  72.5554562  57.8237343  32.9732919  60.7981586  66.2505865
  33.3753014  60.1973009  66.8779564  33.6257148  60.8914232  65.5564117
  51.7257547  63.8461161   3.0820233  50.8798218  63.4551859   2.8633738
  51.8663692  63.6147785   4.0001407  33.2250595  29.3245769  62.6037025
  33.9115334  29.4097447  61.9420910  33.6225200  28.7942362  63.2943487
  45.3999376  36.4406013  63.6980438  45.7354546  36.7916393  62.8731585
  46.1728525  36.0913181  64.1417074  48.8383198  40.3798723  27.8768373
  48.8679123  39.5176458  27.4621964  47.9112101  40.5221224  28.0677819
   5.0657743  36.5666270  83.6127377   5.9012985  36.1946177  83.8951206
   5.0119084  36.3545752  82.6808739  45.0724697  70.7570457  57.3521280
  45.3630447  70.4776239  56.4839554  45.8799124  70.8418417  57.8591585
  35.6709909  37.5883913  47.0484924  35.9136701  37.5220704  46.1249447
  34.7183943  37.6817393  47.0397186  51.6841936   2.3267381  44.1224861
  52.0955420   2.3418443  44.9866581  51.4500523   3.2391959  43.9526892
  95.4320335   0.2153827  46.3586807  94.5910263   0.5782818  46.6366005
  96.0453224   0.4797705  47.0443964  38.0224037  49.6230125  48.8613892
  37.5695205  49.6283960  48.0181217  37.5286889  48.9998436  49.3944359
  20.8910179  59.7723913  37.1807814  20.5412054  58.9402628  37.4992585
  21.0384655  59.6281815  36.2460661  59.0082693  65.8244705  57.5625277
  59.0356922  65.1847363  56.8510389  58.5017061  65.3946877  58.2516670
  17.2801483  33.3074641  48.1037664  17.8222179  32.5374889  48.2756138
  16.6386712  33.3121657  48.8142014  15.5994403  59.7320747  40.4184198
  14.8073030  59.3736267  40.8187532  16.0421014  60.1908588  41.1324215
  20.2982545  70.5204582  28.8170290  19.8942566  71.3861990  28.8763309
  20.8639979  70.4668856  29.5872879   1.0616932  64.1819286  56.1021614
   1.7427963  64.8209143  55.8923197   1.4987364  63.3334351  56.0295200
  68.8402939  19.9972689  84.2807579  69.2667913  20.5972552  83.6689186
  67.9726696  20.3760529  84.4221115  35.0194979  67.0379400  68.0541277
  34.8010755  66.1140871  67.9315901  35.8005285  67.0280552  68.6074162
  17.0783603  43.1829643  77.4448919  17.5584960  42.8871441  78.2183218
  17.3583567  42.5897789  76.7477798  25.9292293  72.8172064  43.6113358
  26.2077022  73.6504412  43.9913416  25.3073478  73.0623579  42.9262114
  46.1235237  59.1675758  31.2649226  46.7759466  59.6172142  30.7278895
  46.4555645  58.2735395  31.3466620  15.4527760  29.9866199  75.9002399
  15.1384175  29.1280031  75.6170702  16.2367702  29.7966623  76.4155054
  28.2444000  47.4067450  28.4857512  28.4167528  47.1183395  27.5894547
  28.8748908  46.9222736  29.0186691  52.0734835  35.2454948  12.6491880
  51.2068081  35.1194787  13.0354869  51.9018888  35.6733370  11.8102980
  11.8897331  60.1100159  53.3703327  12.3366094  60.7194233  53.9578342
  11.9026327  60.5458450  52.5182104  35.8742857  74.2745686  40.4147673
  35.7483220  74.2285824  39.4670057  35.1137567  74.7601604  40.7341814
  12.0600224  60.9964752  57.6940393  12.6003575  61.6263103  58.1710911
  12.1227086  60.1904917  58.2065773  16.1432767  64.2471552  33.4264946
  16.2779772  63.3430243  33.1425405  16.3898230  64.2469788  34.3513989
  10.8923650  49.5034981  42.9661560  11.4312375  50.0750160  42.4191475
  10.5086184  48.8769627  42.3526192  29.3689728  37.2933793  52.1484661
  30.1286674  37.8755975  52.1593618  29.1673207  37.1801138  51.2196255
  30.6433797  38.7827921  91.0738850  31.2904859  38.2281685  90.6381321
  30.9621191  39.6750331  90.9377098  40.2705479  23.3883977  29.1799235
  39.9411798  23.2620549  28.2901001  41.2228870  23.3538222  29.0899730
  31.2801647  41.8883133  65.3816319  31.3988352  41.6032982  64.4755888
  30.5443192  42.4994564  65.3460407   5.7273197  39.4487333  51.5222168
   6.3671809  39.5485306  50.8173370   4.9649218  39.9458241  51.2257671
   6.4995164  59.3707848  39.9450731   6.7043442  59.1720629  40.8587408
   6.7819345  58.5942268  39.4619322  52.0362711  20.6867099  71.7830467
  51.4535999  20.5435467  71.0372353  51.8829536  21.5972137  72.0354462
  27.4145031  37.5348306  76.6041756  27.5604367  36.5894413  76.6384697
  28.2259440  37.9148102  76.9409418  32.4649954  61.5136814  54.6586323
  33.2206655  61.7847776  55.1798820  32.3881388  60.5732059  54.8193502
   8.8821381  37.0873904  39.0614271   8.6046445  36.4097285  38.4449840
   8.1160402  37.6534200  39.1559553  29.5190334  41.6127539  70.6752014
  29.3786335  41.0505009  71.4370394  29.4443250  41.0228205  69.9251175
  23.3363581  52.8404999  73.5514641  22.6841450  52.1639633  73.3693981
  24.0170431  52.7003002  72.8932524  40.9664059  34.3135023  40.0176477
  40.7975054  33.6185813  39.3814182  40.4269075  35.0463343  39.7207785
  47.6826525  43.2627201  57.3686695  48.6104059  43.0456781  57.2770023
  47.4231339  43.5756922  56.5021038  51.6016436  15.2998006  74.4530582
  51.6553926  15.5481982  75.3759003  51.3416100  16.1037862  74.0033674
   8.3317435  59.2408848  45.2695990   7.4630678  59.6415615  45.2365398
   8.3003420  58.5463381  44.6116829  24.6232891  45.0357342  27.3461962
  24.9926233  44.1684055  27.5122428  23.9088321  44.8776865  26.7290998
  61.1758184  16.4558709  63.4461689  60.6130886  16.8900228  64.0873241
  60.7575321  16.6306555  62.6031256 108.1386089   9.2941201  26.2065911
 108.1493855   8.5465419  25.6088924 109.0178967   9.6665162  26.1402464
  23.5287499  30.6317782  60.3117657  24.3066812  30.4606056  59.7809601
  22.8035641  30.6117845  59.6873140  22.2188282  42.2079706  79.2602396
  22.1855402  42.2095585  80.2168560  23.1113386  42.4835682  79.0511799
  41.8386555  44.2778873  58.9676523  42.0263958  44.2995358  59.9060106
  41.4290667  43.4245920  58.8249683  63.4285593  32.3429656  26.0952520
  63.7192392  32.3598361  27.0070910  63.9873981  31.6874790  25.6778026
  32.4585271  50.9271097  43.0908012  32.0413685  51.7881632  43.1189871
  33.3166814  51.0894299  42.6990652  30.9017992  66.4758682  41.8400431
  31.1715508  67.3897839  41.7493534  30.0513768  66.5194082  42.2772121
  11.9009650  71.0370159  37.9117036  12.6515281  71.2480593  37.3564124
  12.2874713  70.7729912  38.7466478  33.6408758  64.0309620  37.0990443
  34.0602660  63.6748219  36.3157773  34.2559481  64.6896696  37.4215698
   3.5403880  26.5269470  52.4221373   3.4551448  26.2334394  51.5150452
   2.6403588  26.5721178  52.7448463  35.4593134  54.3335915  44.9371338
  35.4447722  55.0085402  45.6157064  36.3472867  53.9779043  44.9720907
  79.8110247  92.3697948   0.0925978  78.8994646  92.6568317   0.1463753
  79.8612976  91.6197109   0.6851192  20.2702761  35.4159951  28.7346387
  20.0284672  35.2271819  29.6413422  19.7239995  34.8275328  28.2135582
  27.0886278  61.8130445  57.6935291  27.3414302  62.2845793  58.4872389
  26.3266468  61.2958860  57.9546165  20.8884430  46.6050482  62.3081017
  21.7414021  46.8462992  62.6693392  21.0350633  46.5503550  61.3637829
  44.4490957  26.9055867  76.6609526  45.0369215  26.4729190  77.2802162
  43.9062405  26.1986017  76.3120794  27.5986075  91.9115448  45.0190353
  27.7163291  92.7907467  45.3787184  28.4197712  91.4605427  45.2153063
  25.7715988  35.4213452  68.1296062  25.2197528  35.8099008  67.4508429
  26.3620329  34.8376727  67.6532173  36.2435293  78.3798218  71.0013723
  35.8790398  78.3371019  71.8854284  35.4778051  78.4050083  70.4275608
  20.9145451  51.7702198  63.8117075  20.7751441  52.1737146  62.9549742
  20.1100111  51.2793446  63.9790297  12.8428710  51.0340548  62.6116848
  12.8852057  51.9902611  62.6221180  11.9404864  50.8369875  62.3604918
  28.1729078  40.1869774  50.4440975  28.8753247  40.5716515  50.9683800
  28.5074997  40.2021456  49.5474100  39.3092418  51.1154318  74.7005844
  39.9878621  50.5237103  75.0255013  38.6175823  51.0722065  75.3608656
  22.2887301  71.9571877  52.8580141  22.2481489  71.3843060  53.6237717
  21.4347672  71.8559408  52.4376202  33.2313871  40.3376579  84.0086365
  33.4535885  41.1559010  83.5644054  33.6009836  39.6538401  83.4500408
  51.3475990  69.6308804  61.7234707  52.0338964  70.1930380  62.0829201
  50.5556965  69.8878098  62.1958208  51.2320757  20.4116726  60.4234600
  51.6635227  19.7774160  59.8509169  51.2229824  19.9908924  61.2831688
  59.3941402  72.3152065  58.8575411  60.2149630  72.2939110  59.3495035
  59.1096926  73.2279015  58.9056206  26.9151759  76.8924332  48.0108452
  26.3209963  76.7107105  48.7389660  27.6244640  77.4024248  48.4020710
  15.9126377  46.5985918  74.5143461  15.1701915  46.4511108  73.9284706
  15.6951213  46.1055279  75.3054237  30.0735617  44.2824125  77.7990103
  29.4967103  44.9774504  77.4821615  30.3657961  44.5867777  78.6581945
  40.0080919  68.4188461  39.1403437  40.5176640  67.6502895  38.8836455
  40.1513481  68.4971094  40.0835180  24.9985743  88.4932613  51.8633270
  25.6991744  88.2378101  52.4634457  25.1637030  87.9822063  51.0709953
  17.0195961  28.9200068  85.9451389  17.9303157  28.7755179  85.6883430
  17.0017838  29.8210120  86.2677860  34.6616197  47.8048182  40.2737379
  34.9391913  48.0738926  41.1493969  34.4891906  48.6265373  39.8140812
   1.3116553  38.7304449  88.7677288   1.1693210  38.0684638  88.0911541
   0.4951471  38.7419057  89.2671394  18.0203867  41.9574165  39.0517926
  18.7524259  42.2891855  39.5716786  17.8017747  42.6768780  38.4594989
  15.3458428  41.6956949  51.9680405  15.6089330  41.9200325  51.0754681
  14.3973565  41.5779305  51.9157267  92.6866436  90.7153702  33.1956553
  93.1016541  90.8269787  34.0509582  92.9969692  91.4596272  32.6799059
  38.6815953  56.3643408  44.8595572  38.4296656  55.4963207  44.5444345
  38.7862873  56.2549496  45.8047056   5.4874766  47.0996618  64.8833466
   6.1541539  46.9091320  65.5432463   5.9122121  47.7133846  64.2840290
  29.6258068  56.3718605  79.9455786  30.0019860  55.5410576  80.2362442
  28.7950397  56.1287069  79.5370007  36.9859624  44.5953560  59.2975235
  37.6462221  44.1657877  58.7536860  37.0869827  45.5276108  59.1053629
  41.3291121  26.2427044  50.3200865  41.0063791  25.4959536  49.8156738
  41.0161924  27.0093274  49.8398781  46.4706421   1.6550913  37.1532106
  46.0441256   1.9839634  37.9445124  46.0684156   2.1514282  36.4404011
  43.9853477  72.0717096  38.2462430  43.3579636  71.4577961  37.8644896
  44.7179556  72.0795155  37.6302433  35.2206039   8.9601171  37.4498367
  35.5313444   9.8070753  37.1299410  35.8487725   8.3274072  37.1015310
  34.2260742  55.7748175  54.7025490  33.5830784  56.3856077  55.0627184
  33.7258959  54.9786282  54.5232821  44.0401983  57.7309752  58.9401960
  43.2812881  57.2565365  59.2795992  43.6710739  58.3643770  58.3247471
 111.3637161  37.0418739  71.0478401 111.1451054  37.5439715  70.2627659
 112.1050453  36.4965391  70.7846642  37.7540231  31.4466858  51.1127043
  37.6782417  32.2029233  51.6945934  37.8018951  30.6944036  51.7026281
  43.2627916  11.7673135  72.7599907  42.4645281  12.1235383  73.1500006
  42.9516268  11.1877656  72.0646238  16.6960466  22.3734117  36.6929674
  17.4864328  22.4035311  37.2320557  16.0029602  22.1104884  37.2985554
  34.0222049  87.3257351  30.4869413  34.4856930  87.8526402  29.8359513
  33.1390071  87.2278881  30.1311064  48.6820745  40.8390093  72.6671362
  48.4509802  39.9996233  73.0649471  48.7214088  41.4500141  73.4029055
 108.6620712  46.5234566  39.1536617 109.0932846  47.0160627  38.4553576
 108.1253529  47.1725702  39.6084428  49.0257120  43.7009716  33.5807729
  49.5506763  43.2465029  34.2396379  48.8770103  43.0455494  32.8991961
  16.9501305  56.9422483  31.4044142  17.7446353  56.6853046  30.9364676
  16.9191182  57.8950787  31.3185000  49.5222187  40.4853582  54.5237303
  50.3043270  41.0354424  54.4795370  49.2979622  40.4621649  55.4540014
  64.6272850  26.9939137  86.8714905  63.8728762  27.5508142  87.0637417
  65.3434944  27.3778248  87.3773384  27.3339653  66.8689632  49.3273640
  27.6473856  67.2873449  50.1292086  26.8418479  67.5547504  48.8759804
   7.0116282  23.2840514  56.2995481   6.7790776  23.4482670  57.2134352
   6.1708337  23.2044315  55.8490419  22.6480913  49.3838358  56.7006493
  23.4777021  49.1967964  57.1399593  22.8434348  50.1228571  56.1245298
  23.6786914  59.0442228  75.7132721  24.1770101  59.3652248  76.4648485
  22.8875995  59.5830154  75.7026291  82.8172970  68.7103510  70.6565714
  83.2711506  69.5267868  70.4475737  81.9921017  68.9897680  71.0530710
  56.4093733  30.8255458  59.1343737  56.7327881  31.2032890  58.3164835
  57.1307516  30.2801466  59.4480371  30.4960275  46.1888361  27.6688027
  31.1455488  46.7505550  27.2459197  30.9852719  45.4063892  27.9230595
  82.8352547 104.5833206  57.4876308  83.1411362 103.6772346  57.4468184
  82.0478821 104.5460796  58.0306673  11.1665916  45.2576017  51.0996819
  11.9011736  44.8278809  50.6615448  11.5717816  45.9459352  51.6271782
  27.4230075  18.0827928  51.1224937  26.5429544  18.4065580  51.3146210
  27.8999233  18.1820667  51.9464636  51.6485548  37.8197575  29.9826789
  51.5693665  37.8982115  29.0319920  52.4801302  37.3651552  30.1170468
   9.5835125  48.1205654  87.2003078   9.0047103  48.0910444  87.9621124
   9.5887333  47.2227192  86.8685341  50.9289026  60.9736252  56.7036963
  51.8402767  60.6971169  56.7994690  50.4311228  60.1562119  56.6867733
  33.9100575  27.8383064  76.4676619  34.4449019  27.6852846  77.2466087
  34.0075684  27.0394444  75.9494495  22.2408104  45.1155901  25.6145024
  21.9624758  45.2571583  24.7096705  22.3993850  45.9953403  25.9567380
  29.3537116  36.7159390  43.2413006  28.5144663  36.6171694  43.6909056
  29.5974755  37.6300073  43.3872032  38.7157941  23.6272621  57.9098988
  37.7651882  23.6837840  58.0067778  38.8476443  22.9868770  57.2107887
  34.0659952  33.8765121  25.6584239  34.7804999  33.4198785  26.1024952
  34.4994283  34.4054198  24.9886298  36.3387513  41.4089108  58.8837576
  36.6069317  42.2791958  58.5889435  35.5571866  41.5658188  59.4136333
  43.9514685  26.4109921  31.4039302  44.8993778  26.4328575  31.5351772
  43.6192465  25.8996415  32.1417546   8.0967200  64.3576384  52.1497059
   8.7127912  64.8953533  52.6472473   8.2695502  63.4627247  52.4420881
  72.5783014  99.0482140  86.4189053  72.2606993  99.7507191  86.9862270
  71.9736338  99.0477371  85.6768703  44.6044922  36.2863660  75.4712772
  44.3330240  35.5895829  76.0687971  44.0310526  37.0223069  75.6852627
  10.2559221  52.7351189  50.2477121   9.6071792  52.0351934  50.1737595
  10.7090688  52.7317381  49.4045734  25.2922797  38.3783484  42.5416756
  25.6008267  37.7550006  43.1993008  25.7233310  38.1051588  41.7318630
  30.2259588  64.5287085  28.0132103  29.8717046  64.3592310  28.8861442
  30.7495713  63.7529755  27.8124642  11.1863911  65.4380989  50.0389099
  11.0301447  66.1758614  49.4493961  10.6474912  64.7305250  49.6851301
   3.1078368  51.8156958  79.5184946   2.6854187  51.6984081  78.6675882
   2.4834950  51.4543629  80.1476765  14.3194926  52.2463560  52.9806614
  13.5626185  52.6073837  53.4422159  14.3006563  51.3112926  53.1844616
  20.6468582  68.4827375  75.1714087  20.9196472  69.1117716  74.5034742
  20.3878880  67.7052832  74.6767044  25.9693599  46.7903614  59.4372320
  25.3277302  46.3771343  60.0149727  26.6194773  47.1658802  60.0310040
  18.6102355  23.0107737  41.9727135  18.6774385  22.1251965  42.3297405
  17.7467740  23.3162546  42.2508240  19.8169219  59.6988201  52.5167942
  19.1091108  59.2701292  52.0356894  19.5166433  60.6004000  52.6317501
  47.8273249  50.5579424  79.5746088  47.4222469  51.2036562  80.1535702
  48.7370157  50.5100203  79.8685503  22.0851398  57.8383112  62.8807163
  22.9589748  57.6643801  62.5308704  22.1812630  57.7350855  63.8274622
  60.3755093  95.7683372  27.1116900  59.7602463  95.5824947  26.4023590
  61.2356949  95.7561874  26.6919708  39.7949457  33.4149027  68.2525253
  38.8526678  33.4669399  68.0924129  40.1294565  32.8713965  67.5391293
   9.6963674  82.9280376  57.3194456   9.2290926  82.9289627  56.4840508
   9.1097724  82.4701118  57.9214811  14.7222960  46.3922024  68.8535595
  15.5147159  46.4422417  68.3189583  14.2028415  45.6982994  68.4474897
  29.0795779  60.3320885  59.8030615  28.9557147  61.2572670  60.0150394
  29.2074037  60.3187275  58.8545275  80.4964256  55.7734680  75.0823545
  81.0063744  56.5153456  75.4076147  80.8579636  55.0149393  75.5407858
  56.9955492  85.2413559  84.8376942  57.3451042  85.8914089  85.4471779
  57.4676847  84.4361115  85.0496006  25.0658464  57.6258373  54.1577196
  25.4263163  57.4890280  55.0338316  24.1251636  57.4817181  54.2605734
  35.2024245  89.6341133  17.3991036  34.6696973  90.1845360  16.8251085
  36.0967588  89.9507809  17.2721469  46.5685558  41.2547874  26.2943578
  46.7723227  42.1723223  26.4755678  47.1907568  41.0014009  25.6125236
  18.0468905  94.1746521  68.4399652  18.4726393  94.8116970  69.0136719
  18.6866736  93.4684086  68.3497858  26.1304331  46.6222620  70.2863121
  26.0392857  47.5485897  70.0630617  25.9133911  46.1584997  69.4775820
  46.9337988  48.5558558  59.9858332  46.3637209  49.0561199  60.5697680
  47.8207684  48.8034391  60.2470303  42.4798393  66.6273022  55.9011316
  42.9387283  67.3106813  56.3896465  42.4989510  66.9283724  54.9927139
   2.4129425  45.3637362  63.0649328   2.3687959  45.4646587  64.0157700
   1.4982250  45.3335762  62.7845478  46.3948917  46.0733414  60.8358288
  46.9447470  46.2834597  61.5906429  46.5349483  46.7993689  60.2279663
  43.8749743  63.0740929  48.8101768  44.4057274  62.3604155  48.4563351
  44.4784880  63.8146782  48.8696337  98.9860535  41.4571476  12.0968914
  98.1357574  41.8899012  12.0197916  98.7770557  40.5239248  12.1374273
  40.8060217  60.9327793  37.2766328  40.9945393  60.0331879  37.0093751
  41.6384172  61.3934326  37.1710539  28.5771537  79.3631172  72.1992207
  28.3739996  78.5163975  72.5967550  27.7243614  79.7788572  72.0722055
  21.5934491  54.3418217  47.6794481  21.5073371  53.3885193  47.6849318
  20.9777832  54.6340609  47.0072985  92.0627022  97.7115917   8.2954293
  91.1446857  97.9651165   8.3913451  92.1099854  97.3060513   7.4296713
  29.3361354  87.1964169  39.5524549  29.0826392  88.1193447  39.5657825
  29.8619056  87.1039009  38.7579489  50.7674074  75.2039099  66.8228197
  51.0713053  76.0952950  66.9940138  49.9706602  75.3178501  66.3047028
  39.0111494  52.5251913  27.5794411  38.7995100  51.9330931  26.8577361
  38.2339406  52.5094366  28.1379485  41.1367178  69.7314167  51.6523123
  41.8598318  70.3567934  51.6049385  40.9015512  69.5675516  50.7390356
  45.2597857  63.2197475  65.5992365  45.1027536  62.9220724  64.7031546
  44.9270105  62.5103855  66.1490488  27.2672009  47.9581213  55.8736467
  27.3855567  48.2580900  54.9724007  26.8043470  47.1244764  55.7897806
  38.3841920  80.1709080  65.6957340  37.4837661  80.4787731  65.7990932
  38.4283829  79.8589230  64.7918797  47.5978947  53.2461500  36.9060636
  48.5261106  53.2171011  37.1380329  47.4886322  54.0860653  36.4601541
  19.7613502  26.2872672  52.3645020  20.4409742  25.6589746  52.1203852
  19.6809649  26.1963010  53.3139753  30.0172877  47.2506762  73.0116844
  30.4942775  47.9011536  72.4963284  30.5174422  46.4423323  72.8991842
  24.4853091  47.0637083  44.8852587  24.7061968  47.9772806  45.0664330
  24.9731898  46.5648556  45.5405092  27.5965381  56.6766357  38.0383015
  27.4885416  55.7955265  38.3963799  27.7813983  57.2242546  38.8013053
  22.5759029  51.9599056  66.0607481  21.9714284  51.4324856  66.5829325
  22.1801019  51.9857073  65.1895952  28.1754398  11.5525424  59.8927641
  28.6068559  11.4863122  60.7446623  28.0667400  12.4930477  59.7518158
  30.7717466  35.1278067  70.7970238  30.8124924  35.7308245  71.5392780
  30.6525087  34.2655587  71.1952019  37.6166964  75.9696770  38.9265513
  38.0977821  75.2180767  38.5803032  37.1172523  75.6159639  39.6625376
  21.8038011  61.8532753  56.6514778  22.4143219  61.7699671  57.3839760
  20.9557939  61.6006136  57.0165539  37.4745059  64.4905663  59.3748760
  37.7776790  64.5320034  60.2818537  37.7285290  63.6170483  59.0771008
  32.0121765  66.8308020  61.0810232  32.1836925  65.9373856  61.3787127
  31.2876105  67.1311331  61.6296911  24.0236545  82.8407860  61.0997820
  24.7603583  82.5909710  60.5420256  24.4162345  83.3754730  61.7898703
  12.9936635  24.0686059  59.6147299  13.8257062  24.5174456  59.7646666
  13.1455958  23.5372519  58.8331842  45.5219746  78.2526350  42.7677298
  44.7528219  78.5604000  43.2472277  45.1749134  77.9448271  41.9304562
  25.3653193  79.6886683  75.4049826  24.7682309  78.9659500  75.5983591
  24.9229503  80.1876068  74.7182512  50.2666903  64.5513153  62.0307827
  50.9574652  64.7392941  61.3953876  49.9238968  63.6976147  61.7663717
  35.9734511  41.5780067  62.3361778  36.3569927  42.4523449  62.2679424
  35.1502919  41.6390610  61.8514967  57.8766155  59.9239540  61.3970327
  58.1759453  59.9080753  62.3060846  57.1273279  60.5195856  61.4019632
  24.4476032  22.2386861  33.8875890  24.8301244  21.5455675  34.4256353
  25.1623178  22.8616309  33.7558508  70.0864029  69.4910860  53.6864853
  69.6597099  68.6356449  53.6376619  69.4662619  70.0919867  53.2734728
  13.5168648  41.1029959  56.6597080  14.0566695  41.8867731  56.7623425
  12.6303780  41.3928318  56.8750334  48.8991928  63.6594534  38.5312343
  49.6314859  63.8364506  39.1217041  48.2163048  63.3001089  39.0975952
  15.8154309  57.5216484  53.4531784  15.9655142  57.3681974  54.3860006
  14.8627961  57.5170374  53.3599186  57.2476244  60.5710840  58.6325979
  57.8009558  61.1311626  58.0882072  57.8429365  59.9019814  58.9704370
  38.3380222  53.9660788  22.9831123  37.9854798  53.7592030  22.1175790
  37.5939202  53.8614750  23.5760736  46.6815853  15.4919624  64.0202761
  46.7357206  14.7623086  63.4031010  47.5786877  15.8198869  64.0827465
  18.2704997  38.9069915  30.3888226  17.4566638  38.5070419  30.0823188
  18.0948007  39.1388917  31.3007331 108.9890194  24.5776224  70.5368757
 108.5048294  25.1879978  71.0929585 109.2488956  23.8703585  71.1271906
 108.2634544  43.6012125  73.4705925 108.4238529  43.6474133  74.4131231
 107.4982738  44.1589212  73.3302355  28.1147099  89.5810699  56.7803383
  28.7457681  90.2421093  57.0649719  28.4830570  88.7516117  57.0845747
  72.0103168  81.5330410  52.6625919  71.1691141  81.1025429  52.5099945
  71.9477367  81.8712425  53.5558653  42.7087688  75.3202534  27.4934340
  42.8516960  74.3806410  27.6071692  43.0919790  75.7172155  28.2756138
  17.3362195  65.5015993  50.5863523  17.2771418  65.1250696  49.7083092
  17.4712586  66.4373970  50.4370737  30.3573251  72.3481274  44.2148781
  29.7632790  72.1292400  43.4969425  30.4292226  73.3021164  44.1838598
  48.9670610  81.3921738  53.2416296  49.3842030  82.2529411  53.2777119
  49.6967316  80.7728100  53.2274723  46.6310120  60.8530807  64.0789366
  46.4621544  60.7288361  65.0128984  45.9247541  60.3767633  63.6424112
  43.9629269  38.7420368  63.6350822  44.5124626  37.9903579  63.4132242
  44.5606184  39.3596101  64.0565109   0.1752898  79.3024921  41.6677713
   1.0426393  79.0238762  41.9615555  -0.3538246  78.5052395  41.6934299
  22.9757667  62.2310829  49.5986271  23.4916472  61.7014217  48.9907122
  22.7918625  61.6435528  50.3315830  54.3359137  68.4898043  51.1500025
  54.2042971  69.1631413  50.4825258  53.5739708  67.9166222  51.0655069
  13.7642729  47.0729208  38.1635594  14.2153549  46.7754698  37.3734450
  14.4422865  47.0771408  38.8392162  51.9826794  66.5051365  15.4743147
  51.2990761  67.1259069  15.7264292  51.5359735  65.8722544  14.9120450
  56.1742163  74.0573120  61.0726786  55.7069445  73.7545490  61.8512869
  55.5551815  73.9239550  60.3548717  29.2104077  73.2485199  47.0230818
  29.4179964  73.6472416  46.1780024  29.9929380  72.7458858  47.2494459
  19.7639012  52.1912670  54.7033072  19.1993916  52.8423738  55.1199865
  19.8757303  51.5110874  55.3674507  36.8987942  94.8429012  53.0064440
  37.2786093  94.2857361  53.6858034  36.4164734  94.2381477  52.4426460
  20.1280427 104.2795849  35.8256984  19.6685922 104.9467945  35.3158236
  20.3507519 104.7172260  36.6473436  40.8813429  74.1362286  50.1182652
  41.5237904  74.5704842  49.5570946  41.1235666  74.3978643  51.0065842
  32.5126624  46.0420275  40.4150343  32.0364976  46.2354231  39.6075082
  32.9360962  46.8684864  40.6471872  32.0715070  83.7078571  68.8154125
  31.2860227  83.5217953  68.3009911  32.5910306  84.2873764  68.2582045
  66.4576626  89.1093159  42.9342747  67.0281029  89.7141838  43.4085846
  66.8220520  88.2432747  43.1170940  71.2971544  83.0664539  18.3661318
  72.2397995  83.2326698  18.3714688  71.0268497  83.1908989  19.2759001
  46.1876011  63.2856321  54.6480703  46.6780663  63.6247826  53.8993025
  46.6240549  62.4624109  54.8672724  31.6779852  35.3037786  33.9519477
  32.1304727  35.9103990  33.3658600  30.7785344  35.2811551  33.6252832
  34.4660854  88.0090141  66.5413475  34.4633293  87.0659733  66.3773203
  34.6395850  88.0884647  67.4793339  23.3324885  44.0973282  31.6213632
  23.1959486  44.8971176  32.1292233  23.6889982  43.4713221  32.2516418
  57.2489882  26.2327862  36.3460732  56.3202000  26.4642739  36.3465309
  57.6237822  26.7447639  37.0627594  30.5623055   9.8112768  51.0125828
  31.4905190   9.9734682  51.1809492  30.4518914   8.8725829  51.1638880
  40.9166288  75.4831409  78.0769157  40.1370859  75.5310249  78.6303186
  41.0856819  76.3902378  77.8222942  36.5775251  60.8713770  47.4507761
  36.3951850  61.5371799  46.7876816  37.0866561  61.3312387  48.1182623
  32.8925967  53.5653210  44.6148348  33.8133049  53.8096476  44.7088194
  32.7239466  52.9788446  45.3522873  17.0696163  64.2728567  48.2069826
  16.1446035  64.0277576  48.2295609  17.4199152  63.8157463  47.4424076
  59.9483681  53.6425352  69.6448660  60.1256514  54.5702696  69.8001289
  59.1947126  53.4462929  70.2013969  41.9703102  14.0681839  54.3404770
  41.3985395  14.8337340  54.3974257  41.9869852  13.8504970  53.4085083
  45.9429026  43.4546661  49.8558712  46.4969873  42.6838636  49.7330332
  46.1370707  43.7499046  50.7454586  29.5922494  89.1246319  48.9054298
  29.3562627  90.0413036  49.0477943  29.0272760  88.6361122  49.5040846
 107.8403473  68.8202143  62.9927540 107.6205349  69.6316385  63.4504795
 107.8386497  68.1510973  63.6772346  50.4252768  70.7121515  36.2298799
  49.7385359  70.0599384  36.0911751  50.1721811  71.4485455  35.6731892
  32.0214415  39.7298265  58.9207888  31.1477375  39.8724484  58.5567427
  31.9748092  38.8622952  59.3225908  42.5587606  55.3277159  42.1294451
  42.8981400  56.1697912  41.8261909  41.6135120  55.3864098  41.9905663
  56.0108995  58.5475254  56.5320778  56.4138269  57.9344893  55.9172010
  56.5940571  58.5434628  57.2911215  19.3448424  78.7063026  63.9626122
  18.4593761  78.3486080  64.0276909  19.2870688  79.3641949  63.2697344
  43.1141520  71.9989300  19.5250416  43.6265182  71.2089539  19.6972203
  43.7433672  72.6157331  19.1510415  45.8757210  55.3031778  57.4804688
  45.0528240  55.5581808  57.8976583  45.6233931  55.0356770  56.5967226
  57.8068018  51.2852192  66.8226528  57.4395847  50.4015255  66.8010902
  57.1358395  51.8129063  67.2557688  48.3644009  61.3359880  52.7628136
  48.5659313  62.2309256  52.4894905  47.8426409  61.4403152  53.5584974
  51.6261864  59.2366743  59.1001558  50.8833885  58.8328266  58.6513901
  52.2671843  59.3953800  58.4072161  47.3632860  74.9100161  73.6048555
  47.7920723  74.6209240  74.4103336  47.6172447  74.2585039  72.9512024
  49.0114880  84.6587086  56.0395241  49.2520714  85.1991844  55.2870369
  49.4908047  83.8403988  55.9096909  29.5036936  90.1733017  88.3273602
  28.8608742  89.4655800  88.2809448  30.3501797  89.7336197  88.2475281
  46.7313623  86.9985390  70.2764893  47.4285221  87.6410103  70.4085350
  46.0147667  87.3050976  70.8321428  46.3162661  68.6164093  47.8948498
  45.3634357  68.5315752  47.8608847  46.4735651  69.5603704  47.8742123
  27.0014691  40.9438658  59.2928219  27.7937078  40.5968857  59.7029352
  26.4917350  40.1673937  59.0615416  38.7285161  86.5038204  80.1675034
  39.0694690  85.8255482  79.5844650  38.1238723  86.0399914  80.7467270
  27.2554636  77.2667122  63.4100533  26.4676642  76.7996264  63.6883259
  26.9738865  77.7821827  62.6542568   7.9809636  90.2598953  66.8322182
   8.5947812  89.5350456  66.7136765   7.7023590  90.4854012  65.9446573
  48.3643627  36.2620878  33.9759827  49.0988731  36.3126016  34.5876813
  48.7439680  36.4877272  33.1267381  43.7622929  97.8475857  46.9158649
  44.6454239  98.0287361  46.5941525  43.8449240  97.8721905  47.8691721
  95.8195782 102.7397633  58.8710690  94.9828243 103.1521893  59.0855169
  95.9564400 102.0988178  59.5686913  43.3383083  62.8153658  10.8272898
  43.2643509  61.9834661  10.3596354  42.4328709  63.0899811  10.9722066
   8.7765986  85.9142399  17.3737288   9.5035452  86.3447475  16.9237924
   8.5773593  85.1511860  16.8312550  42.8678846  85.4418373  71.6091728
  42.3748732  86.2323093  71.3893414  43.6624002  85.4997540  71.0784912
  55.2042723  68.1144953  54.0631008  55.2384901  68.3925152  53.1478024
  54.3921852  68.4942436  54.3985653  41.3187933  39.9179912  30.7905269
  41.7186499  40.5423737  31.3959146  41.9005346  39.9152660  30.0303960
  34.8049664  48.4862947  25.9002781  35.7020259  48.1697464  25.7939148
  34.8775005  49.4384289  25.8338356  41.2324810  53.1593513  24.7719622
  41.7811680  53.9403200  24.8445010  40.4223394  53.4723568  24.3695498
  50.0320530  73.8375235  49.9677467  49.7615147  74.4246197  50.6736946
  49.2899990  73.2440233  49.8521948  42.7661276  85.1790524  90.7325935
  42.3032379  84.6333313  90.0968552  42.0877314  85.7444477  91.1018276
  54.4070673  75.7867527  51.3265276  53.7604046  75.0871611  51.4194202
  55.2239943  75.3320837  51.1212587  60.9034348  69.7770309  56.2966347
  61.1912298  70.2837563  57.0559978  59.9475574  69.8026991  56.3398647
  30.5579352  60.4939222  34.9402189  29.7865486  59.9284458  34.9780345
  31.1832786  60.0863695  35.5394530  13.3795774  31.4023781  70.2587795
  12.7568316  31.9928622  70.6827450  13.9520514  31.1089492  70.9675837
  37.5952148  68.0067444  33.6320281  38.3834696  67.9962063  34.1749620
  37.5275230  68.9110374  33.3255959  37.7477860  47.9732847   7.6898575
  37.4900007  47.6023293   8.5337579  38.4184718  48.6205912   7.9076028
  35.5830169  59.4883108  61.5731430  35.2935028  58.9622879  60.8276844
  35.7360435  60.3592443  61.2066889  15.8330107  17.5823939  84.5262241
  15.8778751  18.5158193  84.3190098  14.9113667  17.3541546  84.4049263
   0.8254939  75.2745771  36.2573838   1.2532142  75.5152321  35.4355741
  -0.0361584  75.6886530  36.2091541  87.1646404  11.4558506  76.5168333
  87.0915413  11.6650379  75.5856323  87.4383068  12.2767925  76.9259691
 105.0623703  90.2649021  30.5916715 104.1627121  90.0221539  30.3727531
 105.4706192  89.4451523  30.8701801  23.4221339  39.6994829  54.0880632
  23.5828567  40.5791235  54.4295788  22.5683975  39.4559193  54.4458914
  47.5684357  60.9199762  55.5220079  47.4536991  59.9942923  55.3071308
  46.9975185  61.0631943  56.2768412  25.5074406  49.8476887  23.7726521
  25.1038957  50.7132244  23.8376784  26.4392209  50.0058413  23.9243150
  20.4555964  40.4078627  29.9530530  19.6577513  39.8827648  29.8902178
  20.6055593  40.7232523  29.0618324  49.0359306  62.1168137  64.5685530
  49.5317554  61.6813469  63.8751888  48.1574965  61.7416334  64.5066643
  32.2842598  31.7553115  56.9193363  31.7400956  31.1670256  56.3958502
  32.3235679  31.3414359  57.7815390  65.7848358  64.3487406   2.7176201
  65.5890322  64.4238186   3.6515665  64.9286556  64.3758392   2.2904676
  50.1778507  68.1514692  54.7205210  49.5336485  67.4437189  54.7384167
  49.7095251  68.9104652  55.0681305  30.0847435  24.8646641   2.0860896
  30.4053068  25.7524920   1.9272327  29.8924875  24.5198321   1.2141035
  18.2764173  50.2345085  76.8172359  18.2408440  49.9618149  75.9003925
  18.8663685  50.9882832  76.8202114  14.6483314  49.2439222  54.0542698
  15.5632842  49.5188570  54.1134691  14.5438075  48.6059141  54.7601414
  48.0762339  77.2717571  47.7041626  47.6739120  77.4645424  46.8572855
  48.7902451  76.6683865  47.4983215  17.5271249  58.1480408  73.3858347
  18.0546844  57.4695063  73.8071442  17.0387077  58.5516644  74.1033077
  46.3040543  69.3427753  60.3938103  46.5984440  68.4817362  60.0968599
  45.3691292  69.2301750  60.5654860  59.5313168  48.4893847  67.4199009
  59.8288774  48.4315968  66.5119648  59.4547081  49.4286776  67.5875139
  36.7174602  80.6563282  50.9527540  37.3174429  81.3542366  50.6897259
  36.2111807  81.0341167  51.6719103  27.5047660  65.9015942  64.9459171
  27.1490169  65.4993343  64.1535378  28.1021166  65.2434254  65.3011847
  34.6703696  47.6535368  51.8562555  35.4338264  47.7970028  51.2969828
  34.2061877  48.4906054  51.8472624  33.9408469  57.3165083  32.5503349
  34.6498513  57.9407454  32.7048349  33.1486130  57.8534317  32.5326562
  16.9706345  63.0200100  57.7021408  16.3310766  62.7467585  57.0444727
  17.2825170  63.8708687  57.3939228  29.0983653  46.3005161  60.6021166
  28.4715199  46.8941402  61.0155249  28.7127733  46.1012793  59.7489738
  51.1876297  26.3929296  47.2655964  51.3337231  27.3116064  47.4912596
  50.3756905  26.3970184  46.7586708  54.8933840  50.6636238  61.1710596
  54.0441608  50.7878828  60.7472515  55.3795719  50.0973272  60.5717564
  30.6989789  46.5789652  50.7851982  29.9701095  47.0538139  50.3858185
  31.0517621  47.1853638  51.4363956  38.3717561  78.1357813  58.4053659
  37.5178099  77.7063656  58.3542871  38.6327147  78.0417490  59.3214941
   1.7191136  44.6907616  42.8673315   2.3379506  45.2721739  42.4254799
   1.3307302  44.1735792  42.1617031  35.0197959  57.3863745  43.2740307
  35.4056168  56.5504360  43.5359144  35.7620239  57.9891253  43.2291031
  61.6126490  62.6927376  54.5499468  62.1365404  63.3879805  54.9479532
  60.8626842  63.1475496  54.1666222  41.9982386  71.9216633  61.8911171
  41.9390297  72.8456306  61.6482067  42.5337076  71.5269089  61.2028742
  33.4383392  68.8976431  48.5541964  34.0944743  68.6872339  49.2186117
  32.7217579  68.2858992  48.7230635  28.3471036  28.1932974  51.2228394
  28.0610251  27.8196025  50.3893280  27.9117537  29.0446901  51.2656021
  53.0642319  83.5271740  53.4121084  52.6941299  82.9825878  52.7173519
  53.9364433  83.1628799  53.5630083  37.9756975  68.5576296  50.8077192
  37.6817584  67.7058744  51.1307383  38.6084819  68.3479214  50.1208162
  94.1321659   7.8547579  84.8567390  93.2444572   7.4969637  84.8704147
  94.1523743   8.4157383  84.0814209  51.7740726  72.9987144  56.9922113
  51.7111444  72.4080181  57.7427816  51.0666084  72.7221346  56.4097786
  15.5252850  68.4757805  49.3016577  14.9321258  67.7862120  49.5998096
  16.1226857  68.6123037  50.0369835  51.3454294 105.3510666  90.5836296
  51.3593721 106.2883186  90.7775497  52.0203781 105.2347660  89.9149418
  55.5055761  76.3665724  47.2882509  54.8294067  76.5989828  47.9246569
  55.4403210  77.0411730  46.6123199  99.1296577  66.4856625  39.8224068
  99.7066212  66.8359804  39.1437173  98.3239555  66.9955873  39.7384667
   9.1779721  39.2206478  27.5994253  10.0951135  39.1591597  27.8664494
   9.1308320  38.7170219  26.7867923  52.4052954  74.0077925  51.6658449
  51.5706015  74.1571379  51.2217569  52.3416805  73.1134081  52.0008945
  54.6001816  51.7139339  65.0883102  54.1767502  51.8926334  65.9279537
  54.2668962  52.3936462  64.5025253  39.0031815  55.1495552  60.4635859
  39.4795370  54.6701241  61.1414194  39.6876097  55.5182028  59.9051142
  49.9043179  64.5685101  88.8595104  49.4761324  65.1034641  89.5278740
  49.1826105  64.1735840  88.3702183  29.4229841  94.3930721  68.1539869
  30.3180695  94.1171932  67.9566574  29.0058899  94.4836617  67.2972155
  41.9408894  66.6599035  67.3994589  42.7342653  66.9858313  67.8243732
  42.2597980  66.1586857  66.6489172  58.3321762  80.7325172  69.8878527
  58.0345011  80.9503937  70.7711172  58.8072681  79.9080706  69.9917746
  51.5233898  88.6058331  74.7297430  52.0662308  87.8547668  74.9694586
  50.9020805  88.2578659  74.0901136   6.2353480  51.2021303  62.0191240
   5.3730834  51.4153004  61.6623449   6.8280339  51.8283844  61.6034746
  71.0278845 104.2438316  28.2490087  71.8428230 104.6935177  28.0256510
  71.1663198 103.3409691  27.9628205  76.7088985  93.5651207  84.0319920
  77.2367334  94.1563606  84.5686913  75.8302498  93.6207867  84.4076347
  46.1441660  33.1201625  11.0449255  46.4479685  32.6815367  11.8396235
  45.9328794  34.0097380  11.3282001  29.8552203  81.7983913  64.1610003
  30.2967501  82.5916576  63.8576508  30.4320884  81.0844517  63.8894415
  35.4529357  84.7397804  67.4075127  36.3080955  85.0033474  67.0677090
  35.6364655  84.4071960  68.2861090  70.4853582  84.8430347  37.4464631
  69.6337318  85.2639389  37.5639796  70.4851627  84.1221333  38.0761647
  67.8388643  72.8249073  26.7144918  67.2730398  73.5166836  27.0572972
  68.7269592  73.1209183  26.9142175  52.0628738  47.9679918  64.5095968
  51.2357903  48.1506157  64.0637159  52.7321482  48.3377171  63.9337444
  36.3383985  66.4281368  29.2948413  37.1602011  66.4836502  29.7824764
  36.1349416  65.4930401  29.2740273  65.5971289  82.1237278  59.4213390
  65.9083271  82.8610229  58.8961887  64.6439838  82.2116184  59.4164705
  34.4386911  86.6901302  54.3881369  35.0446773  87.3670673  54.6894121
  33.5857701  87.1241093  54.3676281  86.7470074   3.5582802  64.5205736
  87.6955795   3.6825502  64.4888163  86.3884449   4.3457562  64.1112471
  85.8483410  72.6047850  43.0776882  86.3618565  73.3838367  42.8641081
  84.9380875  72.8819227  42.9734421  19.3468666  84.9337673  30.0413752
  19.7858095  84.3551636  29.4178581  18.7463844  84.3607235  30.5181074
  76.4876223  83.5653210  58.6062288  77.3399258  83.8162804  58.2501030
  76.6956329  83.0659103  59.3958855  47.7785110  80.7601452  75.4077053
  47.9313421  80.3859425  76.2753725  48.3951569  81.4899445  75.3496075
  18.6135304  89.0796471  30.8722281  18.8787985  88.6703777  31.6958570
  18.3365977  89.9614239  31.1212277  42.5214148  79.4192410  60.3094816
  43.1523466  80.1311398  60.4160452  42.1582127  79.5501995  59.4336033
  45.2524328  58.9739752  61.1029053  44.9018860  58.7640190  60.2373028
  46.1792374  59.1565037  60.9481573  60.6105947  68.7016296  69.6714211
  59.9481821  68.4661961  70.3210402  60.2289391  68.4385014  68.8339663
  40.3046846  76.2283373  42.4204397  40.2390337  77.0916891  42.8285456
  39.4022369  75.9113264  42.3841429  53.0028486  86.2755680  49.6422720
  53.4157610  87.1383667  49.6785355  52.0781660  86.4447975  49.8227072
  23.4890342  38.1573033  35.9377289  22.8562260  37.6453876  36.4414454
  24.3164444  37.6882100  36.0453153  38.8094258  89.5656681  66.2243271
  38.2663965  89.1754436  65.5394363  39.1278505  90.3829098  65.8409691
  44.0635252  84.0396309  49.2595148  43.7801790  84.9274921  49.0412331
  44.4580698  83.7089348  48.4525442  59.6701908  55.4010153  56.8736649
  60.3787661  55.4993057  56.2376642  59.8930359  54.6070766  57.3597050
  54.4248486  74.3971109  58.7015438  54.1243315  74.1846895  57.8179169
  53.6204958  74.4930506  59.2114925  69.5484066  74.4292068  53.4577894
  68.7599611  74.9717712  53.4433460  69.9508476  74.5686531  52.6005697
  36.4941096  89.0326595  49.5438719  36.4325213  88.5548782  48.7167263
  36.7420483  88.3679962  50.1865053  55.4091835  85.3848743  82.8300858
  55.7935858  85.3558636  83.7062263  55.7437563  84.6003056  82.3956394
  35.1824117  63.0825996  61.9838810  36.0540032  63.4748125  61.9316387
  35.1551604  62.4616623  61.2559223  87.2601986  77.5096941  61.3319349
  86.5787220  76.8886757  61.5891361  87.9106045  77.4551058  62.0320940
  77.7234602 105.7103157  42.2551823  76.8260956 105.4580593  42.4727631
  77.6368999 106.5677166  41.8385363  38.8067198  62.2785282  58.9861727
  39.3585086  62.3224592  58.2052565  39.3850732  62.5389433  59.7030592
  43.0816269  85.0479412  56.7739487  43.0878162  84.2575455  57.3138285
  42.3487091  84.9207878  56.1715412  61.1296892  69.6580791  64.3946028
  60.9063435  69.0131903  65.0657701  61.7760563  69.2164564  63.8437748
  46.7872381  65.9913921  65.5239630  47.6987743  65.7210970  65.6347561
  46.2858534  65.1794672  65.5989885  41.6805935  55.6009674  50.0226259
  42.3372507  56.2855816  50.1504374  42.0909309  54.8080683  50.3678226
  68.4381008  89.7444820  85.2019119  67.7231789  89.9700165  84.6067142
  69.2297983  90.0232887  84.7417831  33.1959152  76.6777992  23.5846877
  32.6436043  76.5169096  24.3497372  33.2772255  77.6306772  23.5441089
  55.2468061  78.2195997  45.3533983  55.6587887  78.2601500  44.4903469
  54.3221474  78.4020567  45.1862192  53.0229521  84.5358372  63.5174227
  53.4580755  85.1430416  62.9189253  53.7109947  83.9246464  63.7806320
   1.2663913  65.5964470  53.2347012   1.8875387  65.1513958  53.8111877
   1.1962203  66.4804363  53.5950661  62.9950476  83.7045574  68.7892103
  62.7517653  82.7822399  68.8690948  63.3644676  83.7794685  67.9093504
  44.7807121  45.3324080  48.4736252  45.2022886  46.1144447  48.8298988
  45.3300714  44.6073771  48.7715626  39.3838310  91.5673161  26.7627907
  40.0592422  90.8949852  26.6731977  39.7103214  92.3049641  26.2475157
  79.8496151  82.5200844  65.6471157  80.0953674  83.1989574  66.2755919
  80.4246330  82.6690865  64.8965311  40.9512901  51.0538960  53.1846046
  40.4050779  51.6706228  53.6719751  41.8162203  51.1297655  53.5875463
  69.7754049  83.3203316  60.9167242  69.2325211  82.9806709  60.2052879
  69.4790077  82.8442478  61.6924381  31.5202236  44.7627306  66.9096947
  31.8420458  45.2196693  67.6867867  31.9215918  43.8951254  66.9586134
  56.9435883  70.5104733  71.1426687  57.2407341  70.8874416  70.3145170
  56.9260406  71.2501860  71.7499161  29.1148615  69.5892096  74.7213554
  29.7694707  69.8557043  75.3668785  28.9123893  68.6811399  74.9464083
  50.1944494  93.2800198  62.8585196  50.5645943  92.6361370  62.2546673
  50.5564785  94.1170120  62.5676203  30.0048208  66.4265108  35.0079441
  30.4545283  66.3793898  35.8516097  29.0890980  66.2386322  35.2138209
  44.8506880  62.9252386  62.8691912  44.5889187  63.0016327  61.9516563
  45.7953501  62.7742100  62.8369713  92.0648956   2.3546520  53.7551212
  92.9942989   2.5329363  53.8988686  91.6419220   3.2096398  53.8346004
  59.7581339  69.5280695  75.6680012  58.9027166  69.2091131  75.9556913
  59.6035194  70.4403067  75.4227448  33.6663413  83.6648273  74.1676426
  33.3547664  83.3821964  73.3078337  34.1405678  84.4781876  73.9950705
  49.1591597  79.9168348  73.2202721  49.9509192  79.4492531  73.4861946
  48.6621237  80.0265503  74.0309191  47.1361065  76.6494036  55.2407694
  46.3451338  76.9135571  55.7106876  47.1780586  77.2421217  54.4903326
  31.9398689  80.4167461  44.6481276  31.9328666  81.1471462  45.2667618
  31.0262394  80.1354504  44.5993185  72.4553967  74.4788599  52.9537630
  72.7581263  75.3060150  53.3284664  71.6136789  74.3167734  53.3797550
  54.0223074  56.5180969  65.4288864  54.1052341  55.6166983  65.1176977
  54.0211487  56.4428949  66.3831282   1.7073795  37.7949858  24.1103292
   1.3930002  37.1991634  23.4303331   1.9769108  37.2200727  24.8266125
  31.0759354  84.5942497  71.1126995  31.1017132  85.5404091  70.9700918
  31.3407326  84.2181969  70.2732325  57.4498987  73.0248213  72.6262140
  57.5061369  72.8937960  73.5727358  58.2776308  72.6836109  72.2875881
  50.7304144  56.9379425  64.5790625  51.5581751  56.5636349  64.8806238
  50.1786518  56.9601440  65.3609180  14.2170298  55.0751162  44.4266033
  13.7490845  55.5723190  45.0974607  15.1081347  55.4239845  44.4478750
  27.6389408  89.9014950  68.0047321  26.9074178  89.3935490  67.6538849
  28.4154534  89.3874073  67.7834129  28.1776094  71.1670637  85.0475025
  28.9572001  70.6356096  85.2088356  27.9451466  70.9812689  84.1377354
  38.1580830   9.7241664   4.0579492  38.5671520   9.9483275   3.2220984
  38.5520220  10.3284943   4.6870998  33.0528450  54.1208124  58.7045956
  33.3734059  53.3910608  58.1745625  32.1523046  53.8808203  58.9229155
  13.6095023  77.0091057  87.5328541  13.8104439  77.7516603  88.1024742
  13.9475703  77.2667789  86.6752148  88.4250546  85.3482342  58.0515289
  87.8197002  85.2695560  57.3142481  89.0454769  86.0250187  57.7808475
  53.5497141  82.4054050  48.6826754  53.6245108  81.5286446  48.3059454
  54.1692019  82.4061966  49.4123793  50.3938150  97.4713707  30.0490260
  50.8483458  97.0921707  29.2968011  49.6959162  96.8468761  30.2469158
  32.2193289  56.0885763  70.7819128  33.1756687  56.1270666  70.7947588
  31.9681549  56.0648537  71.7052698  38.4770966  76.6196871  47.4597549
  39.0563440  76.1077690  46.8952656  39.0665054  77.1890736  47.9543495
  61.2036085  93.1709194  73.7162876  61.0084915  93.1169319  72.7807426
  61.4467573  94.0858364  73.8578367  51.6739702  88.6567307  47.0865726
  51.4904833  89.5826721  46.9278669  50.8132792  88.2631302  47.2298384
  62.4783134  98.1277847  81.9046021  61.7559958  97.5225067  81.7369080
  62.6626825  98.5226631  81.0523605  63.4595346  74.0301704  74.0234804
  62.6919794  74.4966793  73.6926365  64.0613461  74.7225952  74.2966080
  68.5320568  67.7780533  62.5040913  68.3656311  68.6114264  62.0636177
  69.3952942  67.8863192  62.9032564  32.4341655  75.9363937  59.3383026
  32.7944851  75.2238464  58.8103962  31.9513249  75.4958773  60.0376177
  32.7503395   3.2123080   8.4152907  32.5794196   4.1540104   8.4006315
  31.9957256   2.8389812   8.8707209 107.0690346   9.6478254  17.4306130
 107.2557163  10.3546739  16.8127573 107.8814220   9.1431278  17.4697483
  69.1992950  66.0143375  46.4417791  68.4113646  65.9242725  46.9777679
  69.3651915  66.9567108  46.4162779  17.1821165  69.2662334  78.2041836
  17.8647506  69.1152096  78.8579655  16.3637269  69.2278767  78.6991549
  64.2529774  81.7617130  48.5433960  63.4662485  81.3428688  48.1943274
  64.4506884  81.2722588  49.3418789  43.6910009  60.8127403  37.5754499
  43.9529037  60.4349375  36.7358637  43.8809204  60.1274157  38.2161450
  41.1653137  66.2065697  50.7988834  41.4524078  65.4041100  50.3631401
  40.2986240  66.3813639  50.4320955  64.6066761  80.5535984  63.0569887
  63.8379383  79.9959612  62.9373455  65.1176071  80.4320812  62.2567320
  45.3908157  64.6135187  36.6918302  46.2658834  64.2378807  36.5949512
  44.8890495  64.2420769  35.9662342  64.4888735  73.9199066  61.9784164
  64.0405846  74.5007706  61.3637114  63.9329672  73.9208126  62.7576447
  36.0442591  73.3305597  62.2013617  36.2900710  72.5057888  61.7823648
  35.6308699  73.8395739  61.5040445  77.7812529  66.1987495  64.3133211
  78.0747223  65.7786751  63.5048389  78.2427406  65.7293844  65.0082731
  57.5298548  80.7085323  56.6245365  58.3336687  80.5725098  57.1261454
  57.5894547  81.6131210  56.3172865  61.0132504  72.7091932  61.1730337
  60.7411385  73.0495262  62.0253038  61.4453077  71.8789148  61.3735342
   4.4640189  18.8640571   7.2017175   3.9083254  18.5081649   7.8950989
   4.2290583  18.3587861   6.4234328  39.1276979  66.0765600  53.8219023
  39.7697401  65.3737402  53.7216282  38.3909345  65.6652355  54.2738152
  65.0595093  87.1715260  60.2973080  64.3194962  87.3185253  60.8863783
  65.1887655  88.0133343  59.8604202  46.5330553  70.0355673  52.1567488
  47.0584631  69.2461252  52.0264959  45.6813335  69.8219872  51.7757225
  34.9613690  55.6125498  67.3653173  34.9819851  56.2668896  66.6669989
  34.0949512  55.2121639  67.2928715  67.9075289  86.8728256  86.1339283
  68.2353592  86.5427017  85.2974033  67.7518988  87.8045464  85.9792995
  60.8862495  89.2012501  26.7556667  61.1570406  88.2831860  26.7637706
  61.1845779  89.5463943  27.5971603  68.1275988  66.9302750  31.8839955
  68.2523584  67.3003340  31.0100818  69.0034151  66.9275475  32.2702146
  51.4641857  61.9794416  52.2774363  51.4989328  61.2873936  51.6170645
  50.5777264  61.9254732  52.6345158  27.0129824  43.7461948  59.0470886
  27.6812696  43.7433004  59.7323751  26.9328809  42.8285599  58.7867832
  71.9237709  76.9138098  80.1503086  72.6027155  76.2414169  80.2065563
  71.4752817  76.8725586  80.9949303  35.9321046  78.2374096  37.9684091
  36.3654733  78.9616728  38.4199238  36.4624667  77.4699259  38.1826973
  47.1332645  68.4305525  42.3895931  46.8203402  68.3616161  41.4876175
  48.0212975  68.0742979  42.3629093  40.8673906  55.8568478  30.1291609
  39.9344325  55.6617022  30.0411844  41.3074064  55.0540257  29.8497009
  90.0702000   7.8932559  21.5793180  89.3171406   8.0710047  21.0158134
  89.7786427   7.1838838  22.1520424  19.2470658  91.9082165  33.8903618
  19.6323597  92.5351715  34.5024967  19.4001937  92.2916222  33.0267715
  41.6133308  78.6744261  45.8540773  40.6896544  78.5382128  46.0650158
  41.9223452  79.2905807  46.5182304  44.7377396  77.1616459  57.1785021
  44.5616770  76.5703249  57.9103327  45.0350046  77.9722643  57.5917244
  31.8812108  92.8149700  73.8954067  32.7654934  92.5792122  73.6148787
  31.3999844  91.9875431  73.8910866  50.0836992  66.0956812  58.4987736
  50.5082703  66.5613174  59.2192984  50.2500343  65.1706982  58.6803341
  63.2596684   6.3546026  36.6574907  63.2874346   6.8517387  37.4749970
  63.4620476   6.9984049  35.9786749  84.3419266  54.7285366  50.0968170
  83.7220287  54.5974731  50.8142996  83.9804173  55.4617453  49.5988750
  41.3233614  66.4121866  37.9240131  41.9921827  65.7608747  38.1354356
  40.8342457  66.0260630  37.1974397  41.2525797  50.1283598  23.9794731
  41.7920446  49.7513771  24.6745229  40.9722042  50.9752083  24.3265605
  74.7140265  82.5078964  26.9332194  73.7852573  82.6183033  26.7296672
  74.8651028  83.0839157  27.6826239  40.9124708  62.8131866  56.5997171
  40.7761383  63.7552881  56.7002106  40.4525137  62.5895834  55.7905960
  55.8585644  79.9624395  62.7004910  55.5680466  79.1049242  62.3898506
  55.2431870  80.5809116  62.3067522  65.1016760  79.2792034  67.5513792
  65.8023834  79.9247456  67.6436949  64.6910858  79.2461777  68.4154177
  50.2072668 102.3372936  77.4899292  49.5701742 103.0214405  77.6955986
  49.6925545 101.5306854  77.4639463  23.0632782 103.5203457  53.4543991
  23.5964084 102.9824543  52.8690147  23.2694006 104.4214249  53.2057905
  27.5441122  90.8220196  53.4881496  27.9497218  91.3553429  54.1717243
  26.8802977  90.3078842  53.9477682  43.7693548 100.9020424  72.1406221
  43.7432337 100.9649658  73.0953932  42.9282379 101.2578869  71.8540382
  73.2458544  79.2871904  32.9437542  73.2927895  80.2230644  33.1391263
  72.8003693  78.9065504  33.7006497  21.9624519  23.4675384   2.7897915
  21.2793064  23.8184524   3.3611092  22.0274425  24.1023326   2.0763171
  62.3807335  73.7963104  68.7412548  62.3992109  72.8944731  68.4209728
  61.5033054  73.9019680  69.1089392  18.5482800 100.4424381  82.9548359
  18.9125645  99.5937729  83.2064247  19.0530539 100.7006168  82.1836185
  46.1122942  54.3611574  39.2426705  46.6775084  55.0716686  39.5458913
  46.6542292  53.8713646  38.6240911  98.4985638  82.7346516  81.9878101
  99.3730831  83.0366325  81.7423344  97.9550266  83.5218239  81.9537640
  53.2094765  91.3845921  54.5243311  52.9375935  92.2115040  54.9224949
  54.1631556  91.4466953  54.4707823  65.1952791  96.3294315  79.1196823
  65.5424738  97.2111034  78.9842272  65.2504778  96.1929703  80.0654984
  36.1842561  81.3402653  63.4590149  35.7948279  81.1447048  62.6067638
  37.0033002  80.8449650  63.4674263  92.5989056   2.7566326  61.0336113
  93.4897709   2.6762897  60.6928110  92.1841621   3.4084493  60.4684973
 101.0589409  15.5009317   4.1865885 100.6600952  15.0747180   4.9452057
 101.1482430  14.8020339   3.5386702  59.3142557  74.5852423  56.3489676
  59.1600132  74.7151804  57.2846794  59.0563583  75.4144430  55.9462976
  89.6203709  79.0684319  71.0589743  89.9735546  79.1933250  71.9398212
  88.7029266  79.3322563  71.1291456  78.9282227   0.6836364  61.8201923
  78.3972216   0.0291791  61.3663673  78.6992693   1.5119827  61.3986969
  51.3521767  34.6491075  28.1975269  50.9907627  34.7435308  29.0788293
  50.5846357  34.6070075  27.6271367  79.3336535  75.7473278  27.5827146
  79.3118477  75.7292175  26.6259336  80.2646923  75.7101011  27.8018188
  58.6210537  85.2234459  65.3237820  59.1394329  84.4823265  65.0103331
  57.9094696  85.3037167  64.6886158  57.2548056  83.8879681  73.0597448
  57.8824091  84.5727539  73.2908773  57.4237061  83.7107086  72.1343899
  43.1545687  87.9824829  66.8468618  43.5668325  88.7676430  67.2071314
  43.7874079  87.6503849  66.2101078  71.1898327  65.9835529  90.8640480
  71.2431908  66.3141346  91.7607594  71.9731903  65.4432249  90.7609653
  41.3888693 100.1840305  66.5032196  41.1424732  99.4550800  67.0725679
  41.2952709  99.8371983  65.6159878  17.1440089  53.9770079  48.6785412
  16.4478898  53.5390711  49.1682959  16.8819845  54.8974800  48.6610746
  50.7881498  82.6039124  41.3101435  50.8928156  82.3388958  40.3963375
  51.4858437  83.2428837  41.4556313  33.7692547  48.0564594  55.4584360
  33.6675239  47.2288036  54.9884748  34.0603304  47.8006887  56.3337040
  38.0108929  92.7188015  44.3710423  38.4060097  93.3934212  44.9233103
  38.2073808  91.8964863  44.8198462  74.9646330  91.5365219  59.9480820
  75.6771660  92.0197105  60.3664732  75.2967215  91.3285255  59.0747643
  34.5477891  88.4514427  58.4031057  35.1878333  89.0112495  57.9635811
  34.8776436  87.5623798  58.2726908  50.1907587  98.5681343  91.3578415
  50.8966351  98.3725452  90.7416248  50.3771400  98.0173683  92.1181965
  77.5982618 104.3286896  91.3174248  78.1389999 103.5460091  91.2113857
  77.9596996 104.9561310  90.6913948  74.1294146 104.8159504  71.5902948
  74.1777229 105.6608295  71.1429977  74.7093153 104.9114323  72.3458242
  48.1928205  95.6158543  58.6103439  48.9304447  95.8020592  59.1912651
  48.3830881  94.7488976  58.2519913  66.2439251  69.0874815  82.3048592
  65.6495237  68.6334038  81.7075825  65.9881687  70.0078392  82.2435284
  92.6663971   6.5758598  47.7414370  93.0942822   6.5835297  48.5976410
  91.7573166   6.8120629  47.9258680  56.0547304  90.0021076  51.7717314
  56.3596725  90.9007359  51.8970633  55.1003265  90.0732231  51.7547035
  52.7982092  72.6763773  40.2247572  52.8987122  73.6281157  40.2066135
  53.6096001  72.3573399  40.6198406  74.7706652  65.5645561  79.1934919
  74.8609972  65.9069824  80.0827694  75.0191832  66.2963009  78.6286736
  35.5778742  12.5526154   7.9147667  36.2611532  11.8871152   7.8343213
  35.7463980  12.9678941   8.7605655  42.9365921  94.6110916  49.8662233
  43.7260818  95.1190758  49.6794319  42.2520494  95.2688026  49.9889278
  46.5749693  88.1914997  58.4552383  46.7255449  88.6945057  57.6549006
  46.8130589  88.7904358  59.1629219  79.7251701   7.8620404  70.9367752
  79.3525076   7.8776342  71.8183136  80.1128864   6.9906139  70.8560276
  73.6033964  94.4670200  54.7738361  74.2841244  95.1054764  54.9864674
  73.8606262  94.1178513  53.9205217  48.5869026 103.6190033  55.7070494
  47.9076242 102.9580593  55.5730295  48.2923222 104.3723869  55.1953173
  21.2682271  99.2263317  47.6800251  20.8257103 100.0743484  47.7156782
  20.5571914  98.5859299  47.6566315  44.8332596  95.4477119  68.4443903
  45.0764513  96.3689041  68.5365915  45.0463486  95.2334881  67.5361300
  78.9058065 104.4054699  64.9521732  79.3654013 104.8367882  65.6725597
  79.4865370 104.5131874  64.1989279  73.3882570  71.1461163  76.2170219
  72.8670883  71.1214685  75.4145241  72.7562761  70.9867096  76.9180346
  77.3247385  93.5531425  34.7816348  76.8359613  92.7367878  34.6772814
  77.0974302  94.0689659  34.0080118  68.0028582  83.8432121  35.9845734
  68.3311844  83.1823254  36.5942168  68.0023050  84.6560860  36.4900088
  65.3074169  64.4978237  78.9856052  66.2141418  64.8042250  78.9713669
  64.7840023  65.2944660  78.8982630  59.0745926  99.1288471  36.9827557
  58.8879347  99.0953350  36.0445309  60.0301790  99.1184616  37.0373702
  57.1805239  65.4744482  74.7274494  57.1312571  65.6803608  75.6609440
  56.4686966  64.8513031  74.5817423  79.1401720  86.3788223  34.8699260
  79.3067360  85.4425621  34.7608566  79.8416758  86.6812992  35.4466677
  58.1117344  80.3149796  78.8739824  57.2438097  80.7173538  78.9061165
  58.6121511  80.8722305  78.2779169  77.5363999  50.1716916   1.7089352
  76.6333691  49.9029748   1.5399441  77.9074371  50.3244798   0.8398995
 103.9033222   5.2279794  67.4077559 103.0550575   5.2170914  67.8511047
 103.8309097   4.5504889  66.7354488  88.8050270  78.3038902  30.8854389
  89.4448376  78.4374380  30.1861310  89.2259407  78.6623240  31.6668391
  38.8569736  77.5630903  71.1373997  39.5627880  78.1695604  71.3615704
  38.1648684  78.1214619  70.7832146  15.3190649  44.7855949  48.2951593
  14.5772529  44.5620155  48.8572645  15.1279092  45.6715965  47.9874420
  39.6283007  80.1286125  43.1107950  39.5514369  79.4376612  43.7687588
  38.7240601  80.3711987  42.9114771  49.7690201  86.7836857  69.3851376
  50.4546976  86.8355465  70.0510073  49.3372440  87.6373005  69.4189787
  78.3325195  77.4708462  30.7461309  77.7141571  76.7690468  30.5428147
  78.0908775  78.1822538  30.1530552  81.6139984  84.6805382  66.9969034
  82.5443459  84.6549797  67.2205734  81.5714645  85.2254105  66.2110710
  44.2672825  80.1522160  51.5435696  45.0367165  80.6257629  51.8597269
  44.3984890  80.0863838  50.5976963  17.3162663  81.9872189  58.0179453
  18.2146609  82.0399666  58.3440351  17.3626924  81.3714409  57.2865820
  43.2595396 104.2061806  24.2848229  42.9504156 104.9501705  23.7679505
  42.9502487 103.4370518  23.8062692  80.7753849  99.9419594  61.6590786
  80.2043438 100.3238678  62.3256350  80.4811859  99.0342617  61.5831566
  79.1817760  69.9396181  57.7826595  79.1887140  70.0976610  56.8386221
  78.8447762  70.7525921  58.1591320  96.6224003   3.2938787  61.5876102
  96.1587906   2.4624383  61.6876268  97.5248432   3.0427346  61.3907480
  82.0831585  74.9106169  89.5473862  81.7976952  74.8139191  90.4558945
  82.6633167  74.1640949  89.3978691  94.6207905  16.5999937  60.0230074
  94.9641609  16.3027346  59.1804123  95.1942158  16.1929035  60.6723928
  62.5011158  68.7375784  62.0149755  63.1003141  69.2310715  61.4549255
  61.8192339  68.4257174  61.4199877  73.7233448  79.0971279  62.8388119
  74.5823050  78.8923168  63.2082272  73.5049725  79.9554729  63.2018375
 100.0182343  88.1799793  77.8658342  99.2720509  88.1431007  77.2674227
 100.0100040  87.3328590  78.3114243  83.5661602  11.7936957  83.1348705
  83.5116863  12.6747370  82.7646923  82.6740265  11.4523530  83.0730629
  58.3201504 104.9734211  82.3244381  59.0354156 105.4433155  82.7532005
  57.7574015 104.6860695  83.0434513  91.7293072  14.8843443  40.3394938
  92.3135185  15.6383085  40.2590179  92.1940708  14.1730964  39.8986411
 100.5338097  24.9964643  72.4857473  99.8718452  24.9857736  71.7944241
 100.5355072  24.1031432  72.8295612  58.6923742  87.2328186  85.9994888
  59.0620613  86.9850826  85.1520348  59.1160107  88.0645275  86.2116909
  62.4532223  71.2100601  58.3148289  63.0773687  71.7834330  57.8699446
  62.7168894  71.2368584  59.2346048 103.7090015  76.0976315  54.7102880
 104.0890884  75.3221607  54.2974901 103.8103962  76.7904091  54.0575933
  71.7929506  59.4509506  88.5014629  72.6124430  58.9819002  88.6584854
  72.0091677  60.3700829  88.6585808  96.0281754  94.5222282  28.3878994
  95.2585411  94.0692139  28.7323928  95.9200096  95.4293633  28.6736345
  56.7469358  98.5184193  71.8710709  56.9901514  99.4351292  71.7418051
  55.9843540  98.3910656  71.3067293  96.2109470  24.4150972  69.7690487
  95.9631824  23.6024547  70.2100229  96.2424278  24.1838717  68.8407326
  68.4637165  76.0866404  88.7262917  69.0842485  75.4666233  88.3432102
  68.2660341  76.6973019  88.0161858  83.7625027  89.6399498  69.5306015
  84.6802425  89.7967815  69.7528219  83.7670422  89.4913769  68.5850143
  46.6099310  57.6457691  46.2337637  47.0562601  57.2514534  45.4844093
  47.0862389  58.4602785  46.3948059  43.4781694  97.4349213  33.9469528
  42.9585743  98.0504799  34.4640064  43.2931805  96.5799236  34.3355322
  64.2308760  46.1078358  10.9124696  64.5850134  46.8949652  11.3262904
  64.2222977  46.3120604   9.9773484  78.5996580  73.7805557  87.0914555
  79.0365314  72.9707813  86.8275547  77.7799082  73.4909153  87.4918938
  86.6165733  95.2112389  37.3407125  86.7929554  94.2705917  37.3584795
  85.6620979  95.2753639  37.3075938  80.4014492  89.7264671  31.3022447
  81.2668228  90.0105572  31.0078859  79.9603033  90.5345726  31.5641260
  47.5916767  85.5711651  58.0409956  47.4784279  86.4921665  57.8061199
  48.0875206  85.1974297  57.3125076  41.4087677  84.4196892  46.7668152
  40.7249117  84.5011616  47.4315929  42.0829678  85.0421810  47.0391941
  23.1885052  84.2689323  29.6075463  23.2619309  85.2010441  29.4026017
  22.7600765  83.8881683  28.8409328 103.1206989   0.9486058  38.0241847
 103.5951424   0.9335552  38.8553929 102.6611900   0.1094041  37.9954553
  71.0912323  70.9188604  37.3344970  71.3054466  70.8808994  38.2666469
  71.1737967  71.8450308  37.1072912  50.5710983  68.3808327  39.9089170
  50.4552698  69.3002892  39.6693039  51.1994076  68.0441570  39.2700815
  54.5293713 101.5489578  42.4130106  54.4282198 100.6224442  42.1949148
  55.0701332 101.9034958  41.7072439  61.3206720  75.3857231  60.4538012
  60.7441473  74.6219873  60.4302168  62.1572542  75.0647879  60.1171112
  99.8984337  82.2988033  36.6793752 100.6403923  81.9978046  36.1548448
 100.2049065  82.2391129  37.5842190  93.4219360  93.2325268  66.4261341
  92.8662109  93.8565636  66.8930149  93.7950134  93.7377930  65.7038116
  65.4826880  84.4883251  26.1950707  64.8339605  84.0021610  26.7040157
  65.1738214  85.3940773  26.2161160  62.9317427  92.3524952  48.0307341
  62.1874857  92.9531384  47.9915762  63.6653662  92.8569126  47.6791763
  79.8778582  21.5271473  22.9578900  79.5223570  22.2844768  22.4928069
  79.3341160  21.4506769  23.7419367  54.2690325  91.6265774  47.8090096
  53.4292889  91.5284729  48.2578230  54.6963549  92.3564339  48.2572699
  76.2074852   0.2423790  59.0079212  76.3850641   1.1522602  58.7695646
  76.1368799   0.2542409  59.9624395 100.6870461  11.3469923  82.5103664
  99.7985172  10.9912896  82.4951077 101.0691738  11.0727346  81.6767025
  35.9758568  27.4995351   1.1754220  36.8145800  27.8673816   0.8971001
  35.5361271  27.2613716   0.3592441  58.4979010  74.8466921  58.9356852
  58.5343647  75.8024073  58.8968611  57.7681732  74.6586227  59.5259047
  92.3685646  84.5684433  40.1295710  91.4207840  84.6069527  40.0012589
  92.6194191  83.7039852  39.8039865  81.8864632  59.5943356  48.7255907
  82.7216625  60.0602818  48.7650585  81.2606525  60.1890421  49.1390228
  51.3239431 101.9219780  39.4410515  50.6968117 102.6412201  39.3659925
  52.0407724 102.1672058  38.8560295  82.0132351  78.3666801  25.7635117
  82.0357609  77.8770971  26.5857220  81.1615849  78.8036060  25.7681799
  70.7819223   3.5112879  21.4095902  70.4973698   3.4613764  22.3221540
  70.8056211   4.4486171  21.2170172  78.7558603   2.1862803  34.8937011
  78.0049038   2.4325317  35.4337525  78.4091854   2.1534626  34.0020895
  77.2148418   2.5358778  65.6901503  76.5520096   2.4991284  66.3797426
  77.1903181   3.4419271  65.3824091 105.5416489  91.9586945  66.8492937
 106.3427067  92.0124817  67.3704767 105.1265240  92.8141689  66.9591618
  38.0258822  37.9194903   5.3442729  37.4506140  38.3848429   5.9515166
  37.4641299  37.7037644   4.5998758  66.7314339  75.2437925  24.0729117
  66.5635109  74.8181248  24.9136496  66.3175297  74.6708155  23.4274530
  59.2746496  94.9134827  64.0919304  59.2597055  95.4924583  64.8540306
  59.4045782  95.5008793  63.3474016  35.0747657  66.2653017  38.4214091
  35.7590151  66.1538744  37.7613950  35.5436373  66.5450239  39.2076302
  69.7477770  99.1908264  88.8175869  70.3284740  99.0118122  89.5571613
  69.8960161  98.4621716  88.2148361  64.0692329  78.7466192  33.2562304
  64.7526741  78.2753134  32.7797723  64.3816757  79.6507120  33.2912660
  45.7908630  73.3102751  45.4440689  45.3649426  73.5440159  44.6193314
  46.5395927  72.7739286  45.1833725  40.7034922 101.6889763  85.0315189
  40.3895187 101.7732906  84.1312122  41.6508579 101.5823174  84.9457932
 109.8226070  10.2070582  47.3249865 109.6845245   9.8826218  48.2148790
 109.3167973  11.0187018  47.2847795  42.8173590  94.5907879  85.7536507
  43.4511089  93.9873600  85.3657532  43.2129145  95.4556942  85.6454468
  65.1008368  76.1196136  74.7110701  66.0411358  76.0813189  74.8859930
  64.7201729  76.4591789  75.5210209  69.8381186  13.3597231   6.1887282
  70.2309847  12.8331399   5.4925960  69.1362858  12.8102410   6.5376329
  95.4109287   0.9159244  61.8410206  96.3006783   0.5998670  61.6838932
  95.0484371   0.3028779  62.4805546  74.6188641  95.6184578  50.5046034
  75.0201321  96.0132885  49.7304392  73.7997532  96.0997009  50.6216145
  34.5839119  77.2094011  55.0327396  33.9675903  77.9391956  55.0942373
  34.0374827  76.4272928  55.1098537  43.8621378  81.6058636  81.7300892
  43.8067818  81.4458084  80.7879829  44.5600557  82.2544384  81.8222427
  67.5868559  74.2229223  42.7058697  68.2405853  74.0220737  43.3755922
  67.9672861  73.8909721  41.8926573  55.3858566  97.8047466  82.4908352
  54.7439814  97.3381996  81.9555283  54.8591089  98.3155441  83.1055355
  85.7042599  96.0761356  61.1014795  84.9097157  95.5646038  60.9489441
  85.9609890  96.3846684  60.2324963  60.5147982  93.1165886  62.3414183
  61.1222982  93.7675953  61.9901848  59.9644089  93.6073112  62.9517365
  50.6931114  76.3996506  51.9137192  51.4992952  76.4139700  52.4295616
  50.0202799  76.1079741  52.5289059  37.3873377  52.2311258  64.0557194
  38.0349612  52.3871517  64.7430849  36.8930292  53.0490685  64.0022421
  45.5700827  94.9602032  81.3206387  46.4239454  94.9929619  81.7520046
  45.2748632  95.8705902  81.3043690  49.5735550 102.0633507  59.8578262
  50.0682163 102.7127457  59.3579960  49.2306757 101.4623833  59.1963863
  59.3520308  88.0034924  58.4357786  59.2616606  88.9153767  58.7124300
  59.7714329  87.5684357  59.1781044  32.9115796  90.8674240  44.0772438
  33.4219265  90.3611469  44.7092724  32.2050714  91.2539482  44.5946121
  57.7701855 103.6394215  71.6010857  57.8317642 104.0513706  72.4629116
  56.9829988 104.0185070  71.2101126  63.1928158  64.7688150  55.3043032
  62.5192690  65.3761148  55.6104898  64.0031099  65.0909185  55.6991529
  76.8736982  72.7054024  64.1414785  76.1567116  72.5753450  64.7621584
  77.0428848  71.8333864  63.7848234  76.5430689  93.7003994  54.5576286
  76.5463734  93.9510155  53.6338282  76.9730234  92.8453827  54.5753813
  76.8125200  72.0747328  58.2037306  76.0513592  72.5000477  58.5986662
  77.1985149  72.7474213  57.6427221  59.2232800  86.8234730  46.7540073
  60.1412296  86.8432522  46.4834404  59.2360067  86.4029503  47.6137924
  42.2405100  93.7070847  77.5331831  42.6637697  94.4215679  77.0571661
  42.8522348  93.4931564  78.2376385  40.2720451  74.6865940  58.3870602
  40.3708267  75.0650692  57.5134277  40.8901215  73.9558697  58.4028006
  57.9430771  47.9645967  33.8088250  57.4507523  47.4418354  33.1759214
  57.3109531  48.6062145  34.1328287  88.8874435   9.9815804  70.6930971
  88.2807159   9.5338905  71.2827444  88.7905979  10.9091043  70.9088564
  67.7988672  87.9513359  53.6632395  68.1249762  88.0739403  52.7716923
  66.9972706  88.4732533  53.6989546  66.8776560  85.2677250  60.2813435
  66.3698959  86.0781002  60.2400637  66.6350412  84.8755264  61.1201191
  78.9910412  91.2048435  35.1058793  79.9268007  91.4013100  35.1504397
  78.5741711  91.9116688  35.5986714  65.5989408  43.4151888   2.8419384
  65.8588314  42.4978924   2.9271165  64.9674034  43.5517693   3.5481513
  23.4489632 103.7557125  88.0142784  23.1206775 103.1246948  88.6548042
  24.2150021 103.3298874  87.6294613  47.1876001 102.4781704  43.6048698
  46.4924908 102.7640820  43.0121517  47.9697227 102.9344654  43.2945251
  46.2390947  91.9226837  66.1227465  46.8558836  92.2353363  66.7846012
  46.7617416  91.8486691  65.3242540  48.5530567 100.8656025  46.4908075
  49.4306660 101.1070347  46.7870140  48.7002897 100.3663921  45.6874704
  23.0499077  66.5582752  31.8422318  23.9573765  66.3537598  31.6166091
  22.5541687  65.7889652  31.5618110  41.0510921  91.0376072  49.3190670
  41.6142082  90.9387016  48.5513783  40.2796364  91.5004635  48.9921904
  17.9820812  14.3339121  41.0431910  18.7862992  13.8772833  41.2900782
  17.7393854  14.8309326  41.8244076  52.7697849  93.7089443  55.6940699
  52.7333736  94.0576172  56.5847635  52.8150463  94.4845295  55.1349163
  60.7054806  97.7859974  46.1195135  61.0527849  98.2521057  46.8800116
  60.2909136  97.0049667  46.4860678  56.6546869  87.6914597  53.3216715
  56.5450287  88.6293602  53.1650114  55.8381987  87.2997570  53.0115843
  57.8402710  92.2828484  67.1419048  58.7033510  92.5578308  67.4512720
  57.7419281  91.3889408  67.4697542  47.2018147  98.6626053  32.7706647
  47.1143770  99.0171051  31.8858385  47.1142006  99.4243717  33.3436179
  50.1341963 101.7485428  49.2011261  50.2374697 100.8133316  49.0252113
  49.3753576 101.8005753  49.7822380  53.1591892  81.7179680  73.9851427
  53.0791998  81.6633320  73.0328560  53.4872770  82.6023865  74.1475868
  41.7305613  59.0634489  58.7451458  40.8652592  59.1907454  59.1340828
  42.0389700  59.9487972  58.5520649   8.2006460   4.7665387  50.0914288
   8.2798159   5.6083220  49.6426916   8.5914409   4.1353327  49.4871998
  67.1903276  86.9193649  66.5933084  66.3526440  86.4677048  66.4907169
  67.8483343  86.2439156  66.4289093  72.3992300  94.2595196  44.5226097
  71.7209387  94.1914654  43.8506556  71.9969082  93.8877392  45.3075647
  77.8659630  68.7831068  67.7217484  78.0245781  69.6131420  67.2721720
  77.2776127  68.3034849  67.1386194  65.4437685  98.4585571  37.7101278
  64.5250082  98.6256027  37.9203773  65.5679703  98.8547421  36.8476653
  59.7446346 105.0790882  35.2456260  58.8539076 105.3964424  35.0968742
  60.0373411 105.5452633  36.0287142  72.0259237  75.7084227  37.0660686
  72.8928185  75.8768225  37.4353409  71.9822836  76.2695169  36.2917924
  57.9269123  64.4616127  68.6669636  58.3416176  64.5627594  67.8102112
  57.6831627  65.3515339  68.9216328   5.0326228  12.9790974   7.9432076
   5.5550265  13.2029974   8.7133992   4.1780779  13.3770132   8.1094825
  44.4673395  58.9534473  39.8528194  44.5345688  58.0701256  39.4902444
  45.2856398  59.0779400  40.3335667  62.0271206  76.4614773  63.0062342
  62.9460669  76.5689659  62.7608395  61.6141033  76.0852194  62.2290087
   9.5466363  64.9490309  15.4172659   9.6112537  65.8562756  15.7155311
  10.1916051  64.4771767  15.9441447  86.7272091  84.3549347  21.6878748
  85.8449745  84.0000248  21.5786958  87.0890522  83.8727188  22.4313641
  83.9968586  68.6522627  62.3438215  83.1793213  68.1593418  62.2738552
  84.5196247  68.3560848  61.5986919  43.0933475  91.8771648  28.6313152
  42.4670935  92.5243092  28.3069110  42.5568771  91.1177254  28.8586736
  83.0855083 100.5905724  80.6342030  83.6853123  99.8450470  80.6085587
  82.9873466 100.7870674  81.5658569  92.0205879  33.8896537  52.8085279
  91.3032436  33.2698631  52.6761913  92.2471142  34.1856217  51.9268703
  50.0956297  93.3906937  90.6046867  50.3555727  92.6576042  91.1625767
  49.1396427  93.3477402  90.5827332  75.9444761  98.0542755  28.2659793
  75.1162815  98.5272503  28.1845975  76.5992689  98.7393379  28.4008002
  10.9216011  65.5034208  64.7276497  11.3975728  66.3295794  64.8121452
  10.0144315  65.7647276  64.5695591  73.8906765  99.2308903  33.4693313
  73.1065226  98.9510155  33.9415693  74.6029997  98.7347031  33.8726020
  74.6626377  76.7541838  68.6690998  74.7537041  76.9304132  69.6055222
  73.9992762  76.0659981  68.6182976  46.2150860  82.3167133  48.0088043
  46.3850260  81.8700886  48.8381910  46.3580799  81.6454315  47.3415995
  32.4239302  87.1286583  70.2543926  32.9502177  87.5671577  70.9229517
  32.8784323  87.3134422  69.4324970  72.4917316  25.2912974  45.1247120
  71.5504360  25.3528643  45.2872133  72.5803852  25.4166961  44.1799116
  63.8502645  67.7934217  50.0228071  63.3310699  68.1205368  49.2881870
  64.2106152  68.5807705  50.4308033  25.6195951  43.2307196   0.7459861
  26.0330868  42.7179384   0.0514997  24.7560143  42.8327227   0.8557960
  70.2929688  88.1973076  38.8415647  70.4342031  88.9836121  39.3688321
  70.7596922  88.3701801  38.0239367  87.9724407  63.6856365  60.3149557
  87.6745129  63.4494066  59.4365120  87.2000504  63.5712767  60.8686495
  44.9774599  88.6920452  62.0073986  44.5563555  89.4318104  62.4451733
  45.4855728  89.0897655  61.3003826  24.0347242  67.6245737  24.8667264
  24.3081427  68.5009766  24.5958161  24.7983146  67.0725918  24.6979761
  57.4149179  87.2026443  82.8277206  57.6358032  86.4372063  83.3583355
  56.4739513  87.3206806  82.9576397  29.4841003  21.6782856   1.9117855
  29.7852802  21.8913460   1.0285376  29.7529149  22.4273109   2.4436986
 101.0139847  80.0012589  49.1537046 100.5049801  79.4692183  48.5420942
 100.3587437  80.4041195  49.7234344  73.0302238  95.2401829  28.7615967
  73.1124926  94.7913170  29.6030164  72.2809315  94.8207664  28.3386469
  78.4679890  74.0119791  57.2492790  79.4238091  74.0287447  57.2006702
  78.2529020  74.6285868  57.9491043  45.8093262  63.2297468  59.3549776
  45.6932402  64.0255642  58.8359118  44.9466991  63.0638313  59.7352076
  89.0795231 102.3091125  67.0474195  89.1990662 102.1680069  66.1082554
  88.4027004 101.6810417  67.2997427  84.1789818   4.8931631  74.8020887
  83.9246368   5.3441221  73.9969969  83.5465240   4.1797060  74.8870230
  94.8612690  71.7674923  84.0957355  94.4081402  71.5579510  83.2790375
  95.7468414  72.0079708  83.8234043  33.5463238  39.9366570  18.3521450
  34.2320442  39.2694235  18.3235168  33.3341503  40.1016235  17.4334490
  66.7733812  97.7861214  86.2318611  66.1356354  98.4917068  86.3398170
  66.6993189  97.5351238  85.3111267  59.4347906  79.2635536  48.2848215
  59.6146870  78.5258102  48.8675785  59.3057919  80.0075436  48.8730955
  78.5990620  76.0117054  89.6868801  78.6915874  75.0693989  89.5464134
  79.4171047  76.2722254  90.1101685  83.6064720  70.0021124  86.5530300
  84.1448116  69.7595072  85.7996655  83.8523960  69.3765688  87.2345352
  55.1146030  69.8060274  65.6940842  55.0088072  68.9193630  65.3493118
  54.9579763  69.7177076  66.6342449  71.4943504  72.4803782  71.8645668
  72.0124578  73.2721329  72.0092154  71.0196829  72.6500940  71.0508585
  34.3786621  96.5016651  67.8016710  34.4316936  96.8543625  66.9133997
  35.2357960  96.6879177  68.1848955   4.8226982  76.2524128  12.6709902
   5.3746694  76.8917274  12.2206104   4.3670613  75.7911301  11.9668269
  54.9120045  98.1772041  65.9188986  55.4880047  97.4143505  65.9689236
  54.8978710  98.5255146  66.8103647  65.0157499  67.6556635  59.4480848
  65.4592848  66.8901539  59.0826988  64.7430229  68.1622696  58.6830997
  15.0969362  96.6338825   6.8768775  15.4618895  96.0583401   7.5490344
  14.8751867  96.0471630   6.1538142   9.6953017  83.2325745  73.9257002
  10.0039423  82.9850197  74.7973013   8.8470465  83.6479855  74.0810251
  60.0770378  77.6487207  82.3784447  60.2131033  78.2571507  81.6521263
  60.2972937  78.1556129  83.1599712  43.6789036  81.2541103  79.1096830
  43.9630890  80.3749943  78.8594103  43.6217928  81.7319870  78.2822752
  72.1217585  97.2842598  31.4323997  71.8280077  97.3049164  30.5216217
  71.7773342  98.0919456  31.8135166  41.8552923  76.3623190  73.0947351
  42.6746893  76.7467308  73.4062624  41.5915918  75.7625198  73.7925434
  89.8017979  56.0513783  79.0978813  89.2956066  56.3582706  79.8500967
  89.5977497  56.6753054  78.4012413  60.1981306  89.9270630  86.3550949
  61.1092997  89.9149036  86.0620880  59.9188280  90.8342075  86.2313557
  49.3986797  70.6043386  63.2286119  49.6894646  71.1747217  63.9401817
  48.6268950  70.1592588  63.5785866  58.5329914  76.2185431  73.0725193
  57.7450991  75.6802893  73.1482553  58.3594370  76.7936707  72.3273087
  34.9163580  17.8647470   5.7498825  34.0823269  17.8462040   5.2805400
  35.5274987  17.4099505   5.1703149  79.8795843  24.6374083  78.3353186
  80.3888226  25.0443387  79.0362549  79.3541718  25.3518820  77.9751778
  82.0054626  81.4670181  50.0240231  81.8572426  82.1386909  49.3583536
  82.8933811  81.1527252  49.8535872  28.3165216  66.9782114  13.1374335
  28.0367446  66.2038040  13.6255467  27.8157020  66.9415569  12.3225307
  74.0570498  80.4648209  59.7544670  73.8624239  79.5815086  59.4412327
  74.7109175  80.3365993  60.4416752  12.7715778  30.0563645  63.0252123
  13.3243704  29.5684743  62.4147892  13.1581008  30.9316659  63.0512238
  27.8191805 102.2916889  35.1337886  28.4050870 101.9213390  35.7939291
  27.1862006 102.8047371  35.6361294 103.7141330  77.4715970   0.5841240
 102.7608497  77.5538443   0.5573830 104.0244205  78.3508657   0.8005509
  80.5047321  71.9446564  30.5964708  81.2873363  72.1834612  31.0932016
  79.9304485  72.7065659  30.6734347  87.7173042  69.1957283  64.1762352
  87.4330616  69.9777508  63.7030792  86.9120693  68.8335800  64.5459414
  56.2238884  80.1380825  42.9517555  55.3787279  80.2751827  42.5238085
  56.4091063  79.2077541  42.8236389  59.5417404 103.2236576  65.8665562
  59.2515802 103.9568996  66.4091349  60.4973078 103.2771206  65.8827686
  41.7954350  12.9475892  63.4592438  40.9747267  13.2950544  63.8084459
  42.0715189  13.5934389  62.8089476 111.3321686   2.4072641  48.0193758
 110.5959129   1.9045694  48.3678818 112.1075535   1.9801110  48.3834696
  34.8329401   2.6115471  42.4195480  34.4275618   1.7451373  42.3844099
  34.8996043   2.8821012  41.5038013   1.2074214  23.7538123  62.2801018
   1.4115259  23.4336209  63.1587648   1.6186693  23.1198025  61.6926146
  97.2050667  23.1143904  30.2512932  97.7641106  22.3564625  30.0802875
  97.5915146  23.5277271  31.0233307  55.9236479  91.8207169  45.4455900
  55.8337688  91.9015503  46.3951302  55.3202391  92.4739361  45.0914192
 103.7021255  13.6396766  60.6577778 103.8913250  12.9841006  59.9864721
 103.0002022  13.2517326  61.1803102  71.1829329   5.1792550  85.2793407
  70.2980185   4.8320726  85.3916836  71.2686443   5.8426797  85.9639931
  45.4463911  91.1328888  33.2907271  45.9376955  90.5164337  32.7477479
  45.9832239  91.9253445  33.2990050  71.4924765 102.1005535  35.1943946
  71.9812775 102.0061207  34.3768454  70.5975103 102.2964478  34.9171042
  28.8954592  16.7299604  65.2245903  28.6524034  16.5694940  66.1364079
  28.8233900  15.8735216  64.8032236  78.0696487  82.5453663  60.6746244
  78.4905958  81.8720245  60.1401663  77.1721458  82.2332382  60.7899284
  68.5601807  69.2340136  12.5396478  67.8395271  69.5276833  11.9822919
  68.1613207  68.5945988  13.1298053  67.1270323  74.7413492  17.0345795
  66.2990904  74.6086311  16.5729189  67.4961090  75.5324173  16.6418660
  92.2074795   6.4802289  64.7201729  92.1057987   6.6502577  65.6566477
  93.0517006   6.0349154  64.6478796  53.2361174  31.7655277   4.7376108
  53.7659073  31.7176557   5.5333871  52.3419905  31.5965223   5.0346154
  12.0839405   3.7159586  59.4889927  12.0060837   2.9693738  60.0829458
  12.6472235   3.4016594  58.7817717  74.6824646 105.0170898  51.8331861
  75.4984236 105.5125809  51.9034147  74.0040731 105.6853485  51.7359257
  96.4546204  76.1310196  76.5549421  96.6548920  75.9768486  75.6317091
  95.5150795  75.9630108  76.6275167 109.7296715  81.3841248  29.0086603
 108.9616871  81.7370987  28.5593891 109.8130131  80.4909325  28.6747456
  67.0814371 102.4671459  49.2283010  66.4941406 102.7465153  48.5259724
  67.6418877 101.8055058  48.8228893 101.3783455  36.5960860  79.6754694
 101.9681644  35.8938956  79.4011164 101.9124794  37.1480918  80.2466202
  21.0121202  10.6450140  59.2849970  20.6556344  11.5330529  59.2618656
  21.8805480  10.7251859  58.8904858  64.1773415 101.7945766  75.0951147
  65.0895691 102.0820045  75.0568390  63.8087082 102.2663689  75.8419466
  76.1687946  70.9137869  24.6456003  76.3470221  70.6254768  23.7504220
  76.1955261  70.1106548  25.1656914  96.8669510  18.5801339  41.0300064
  96.6368675  18.0887759  40.2414227  96.0687733  19.0576768  41.2560606
  87.3177147  97.3866558  38.8712502  86.8858337  96.7317677  38.3227801
  86.6470718  97.6519108  39.5006180  90.0199699  82.9769897  51.7308474
  90.5055618  83.6294556  52.2355413  90.6637192  82.6196003  51.1192226
 106.7080021  99.4994545  51.5475225 106.4300919 100.0441360  50.8110905
 107.5931931  99.8027897  51.7491341 100.1044273   2.7397436  42.1643543
 100.0089931   2.8016883  41.2139416 101.0503769   2.7411681  42.3106861
  14.5687830  14.9479008  84.4555855  15.2838397  14.9831784  83.8202190
  14.7297716  14.1461492  84.9530792  76.9932842  96.0439301  67.2787666
  77.8084755  95.8297634  66.8250799  76.3166380  95.9627247  66.6066170
  11.3823593  13.1091857  63.9696169  10.8754611  13.8148439  64.3712807
  12.2483754  13.1775880  64.3715715  89.5753193  61.2855291  57.7583981
  89.0046501  60.6458616  57.3324966  89.3526268  62.1188736  57.3434591
  85.4715252  94.5069218  24.8659396  85.7539463  94.9035931  25.6900239
  86.1919975  93.9266205  24.6201563   7.1929759   7.7275282  20.0900459
   6.7182952   6.8975306  20.0451684   6.5188110   8.3959234  19.9676466
 107.2202969  10.1754832  53.5746813 107.0383835  11.0223937  53.9819622
 107.5216961  10.3936446  52.6927519  80.5296612  88.9367962  63.9193726
  80.9360313  89.7990417  64.0067101  81.2265301  88.3198452  64.1429043
  68.7817478 100.2812862  47.9382133  69.2338133 100.4470253  47.1109295
  68.8833666  99.3404770  48.0823898  71.7260504  84.7971249  59.1987658
  70.9433746  84.5525074  59.6925402  71.8681669  85.7184219  59.4161367
 111.2719536  10.8234906  69.2122269 111.4565277  10.2472389  69.9539137
 110.7348156  11.5244913  69.5814323  26.3615918  84.8780251  49.4989777
  27.1448970  84.7816658  50.0406218  25.6920123  85.2016640  50.1015997
   0.5053026  23.8743520  47.6038694  -0.3362768  23.9027977  48.0590248
   0.4987604  23.0368519  47.1404219  95.6857109 101.9430733  47.3271942
  95.4337788 101.2592888  46.7065430  96.3270855 101.5223312  47.8997707
  12.5936258   4.9448431  72.6768303  12.4456763   5.3049910  71.8023968
  11.8055391   5.1770431  73.1679869  84.7606945  68.6287308  33.3915186
  84.7298431  67.6804590  33.2647562  85.6212711  68.8866520  33.0611753
  68.2571125 104.3227100  55.6735039  69.0049505 103.9637756  55.1958656
  67.6752996 104.6573639  54.9910593  22.9228640  10.7661819  40.7790375
  23.7663531  10.7263541  40.3282976  22.7425838  11.7020702  40.8676100
  62.6672649  97.0212841  63.1246710  62.1240997  97.4044132  62.4358940
  62.4463940  97.5218010  63.9101171  33.5871387 101.0842514  75.8294678
  32.8852963 100.9262562  76.4608812  33.2106709 101.7017651  75.2024317
  46.2901306 105.8422756  64.7148609  45.4041862 106.1231613  64.4858646
  46.3580179 104.9542427  64.3641233 104.0066814   7.4800146  36.0832357
 104.7721672   7.6114899  35.5237913 103.3101368   7.9797453  35.6574059
  68.6155605  94.9011612  84.3749237  68.4081984  95.6517220  83.8182545
  69.5161104  94.6732712  84.1440487  26.7752910  34.9926972   2.6512957
  26.5156722  35.2437282   1.7648345  27.6017427  35.4527450   2.7981555
  56.4908600  93.6848736  38.0436945  56.4501095  94.5682144  38.4101367
  56.4934540  93.8186455  37.0958900  94.3937397 102.9061031  65.5695963
  94.7288895 103.3614922  66.3419437  95.0942135 102.3011589  65.3254747
  97.4807453  99.8672581  57.3085213  96.9693661 100.3993416  56.6989183
  98.2768822  99.6473026  56.8247700  63.6726236  89.5714378  43.9316702
  63.7483025  90.5236244  43.8695621  64.5164251  89.2433262  43.6209106
  18.3002925  14.5296395  50.2031469  17.7066076  15.1149261  49.7328186
  18.8151133  14.1074860  49.5154142  88.0027676   4.8432860  44.5714140
  88.2499123   5.5341870  45.1860714  87.9249763   5.2894878  43.7281561
  66.7491341  80.3207111  61.2574387  67.6815033  80.2023888  61.0760069
  66.4169073  80.8021736  60.4997778  75.3426361  84.6265507  79.9287796
  74.9322128  84.6998501  80.7904148  75.2201891  83.7097454  79.6823740
 106.2813473   9.2257887  49.0779686 105.9158421  10.0891078  49.2711496
 106.7606831   9.3465847  48.2582855  11.3081741  20.1313400  52.1369791
  10.8006513  20.8989668  51.8735456  11.9981420  20.0624013  51.4771128
  89.6888638  75.6629562  24.8223877  90.0646782  74.7991753  24.6524453
  88.9026546  75.4847717  25.3384900   6.3918263   4.6328643  28.1220388
   6.7987210   3.9740631  28.6847544   6.3017064   5.4037333  28.6822820
  94.4905090  71.8416786  26.6089916  93.9307785  72.5987339  26.7816114
  93.8939571  71.1757421  26.2670994 103.4716129 101.0542774  38.6463761
 103.4419250 100.4892159  37.8743267 102.8240490 100.6788635  39.2429972
  79.3790007  93.2906723  36.9805002  79.1568136  94.1681576  36.6692209
  79.0887117  93.2794380  37.8925514  47.7569628 103.9714813  68.0765390
  47.0849323 103.8172054  68.7404680  48.5742140 104.0282059  68.5716343
  54.5246506  46.4699411  24.2985010  54.5336437  46.4477587  25.2554035
  55.3467226  46.0523462  24.0415096  60.6775188  78.3407736  53.3869219
  61.4553452  78.1748152  53.9195299  60.6371975  79.2942190  53.3124495
  31.7454076  35.0744367  26.9200945  32.3573542  34.7644019  26.2525392
  32.0409775  34.6561551  27.7287412  23.4381175  84.5969772  71.7789888
  23.7356234  84.2297554  72.6113796  24.2435050  84.8457623  71.3254642
 112.1173738  96.2665176  45.1519728 112.6041760  95.5851746  44.6882534
 112.7887860  96.8810272  45.4483128  82.4585915  76.6738176  53.9069843
  82.6193237  76.6217947  52.9648113  81.9762421  77.4924469  54.0228271
  88.9437103  57.0060873  53.1648636  88.8960934  56.0729361  52.9570293
  88.1486034  57.1801519  53.6685848  79.1653061  93.6436653  39.7316861
  78.7264633  94.3497753  40.2060938  78.7223053  92.8471470  40.0241709
  60.9197309  80.3755911  91.4640354  61.3991311  80.1720460  90.6609307
  61.0624102  81.3126881  91.5971696  18.5793543   4.6269292  16.2624967
  18.8962805   4.5634130  17.1634710  19.2282546   5.1726460  15.8182526
  80.3820610  81.5469551  35.9881783  80.8663082  82.3717117  35.9493375
  79.6744394  81.7137718  36.6108060  50.0097847  43.1386328   8.8742536
  50.7379723  43.1964827   8.2556885  49.2836666  42.7895069   8.3574349
  65.5618620 104.3062210  60.2639675  66.1113262 104.2919540  59.4803143
  66.1706924 104.1516399  60.9862280  94.4103336   7.4844801  32.8673005
  94.2628384   7.0587164  32.0227861  93.8093472   8.2294941  32.8681326
  77.0796108  80.7994556  39.7917485  77.4031305  80.0641251  40.3121853
  77.1683884  81.5583611  40.3683043   2.8730348  65.6359673  46.8533421
   2.9003146  66.1977243  46.0788012   3.3321375  66.1360168  47.5281811
  68.9866257  90.0104237  59.6815825  69.6664381  90.6822300  59.6290207
  68.1895018  90.4929352  59.9006987  17.0013142   3.8649720  59.1471529
  17.0548856   4.1819319  58.2455444  16.4295387   4.4932082  59.5883131
  96.6553593  89.0284824  25.8317566  96.9326496  89.3934631  26.6720700
  97.2803688  89.3823147  25.1989937  40.4842043  37.0759773   9.0298456
  39.7630358  37.7047968   9.0568781  40.1655388  36.3701034   8.4673268
  15.4912484   5.7818234  77.1910095  15.2501214   4.8703265  77.0258951
  16.4464617   5.7916772  77.1301508  33.2684088  16.9830775  66.1653852
  33.6536765  16.1593032  65.8667278  32.7824283  17.3087680  65.4077721
  96.0814095  87.7398682  57.2567558  96.0975933  86.7944145  57.1080971
  95.9740543  87.8316498  58.2034779  90.8903790  90.8864212  52.8422642
  91.6779423  90.3944302  52.6100254  90.2780819  90.7093525  52.1281481
 101.8085575   2.8618699  58.9407158 101.1268616   2.1908107  58.9060259
 102.2940922   2.6688191  59.7427225  70.3205013  99.3082905  66.9086838
  69.7165728  99.9603844  67.2640324  71.0588360  99.8203373  66.5786791
  70.3660202  97.5935936  80.2933884  70.9243441  98.2400799  79.8614645
  69.4966030  97.9939747  80.2996063  75.8554316  82.7245998  48.4766960
  75.0046587  82.2903347  48.4147596  76.4914656  82.0096111  48.4544992
  88.6083508  10.5064654  67.8262377  89.1310310  11.2905538  67.9943037
  88.5575485  10.0660968  68.6746073   1.1257168  49.5457554  33.9570522
   0.3955645  48.9377594  34.0730381   1.2987787  49.8826933  34.8361158
  96.7210770  90.8995533  88.6961937  96.8320370  89.9813938  88.4494209
  95.7761192  91.0055447  88.8059807  67.4137831  87.8066540  68.9747429
  67.2994757  87.6811886  68.0327082  67.5275564  86.9219971  69.3221235
   1.2744357  49.6392679  55.4088449   1.1444495  48.9376593  54.7708178
   0.8640772  50.4059124  55.0087261  93.3799267  13.2639408  34.3594623
  92.6168537  12.8348505  34.7465396  93.7679863  13.7589979  35.0809646
  95.2396965  98.9154148  71.5580034  95.2730370  99.4107056  70.7395840
  95.1875305  99.5842552  72.2407675  94.3037891  12.5186360  83.1511497
  94.2414379  11.5707183  83.0336952  94.2411423  12.6473427  84.0975857
  19.6856356  15.0425589  52.4663067  19.2129946  14.9029291  51.6457319
  19.0562809  14.8076129  53.1481743  16.4007306  12.8728068  67.0702791
  17.2597528  12.5053453  67.2783279  15.7801032  12.1899724  67.3248243
  59.4796658  96.2906837  83.6782551  59.5993757  97.2353840  83.5811138
  58.7426567  96.0823631  83.1041050  80.5106831 102.8660011  37.3892450
  80.2495956 102.2357464  36.7177892  80.4448509 102.3807812  38.2117200
  56.8420506  94.1664410  75.9476757  57.6665258  93.6950874  76.0672283
  56.2417173  93.5121155  75.5903292  88.3152580   6.2481511  23.8540959
  88.1653118   5.4395819  23.3642340  88.7152576   5.9603530  24.6747065
  88.1169224 104.4194698  40.6485033  87.6767540 104.1786671  41.4636660
  87.5994396 103.9969444  39.9630070  95.1282597  83.3425713  29.6266103
  95.4622459  83.1718445  30.5072570  95.8102608  83.8691807  29.2097259
 104.0789413  30.5654621  83.7190723 103.9339352  29.6592593  83.9910984
 104.7162533  30.9050751  84.3473434  94.4032764  20.3302240  52.0464134
  94.7496319  20.7996297  51.2875175  95.0007248  20.5544376  52.7598667
 100.9042358   7.1268809  65.3168249 101.0054588   7.6832902  66.0890913
 100.2133942   7.5491464  64.8062706  15.2715993  14.6777511  40.9044123
  16.0403025  14.1535592  40.6795788  15.0434959  15.1291716  40.0917530
  91.7220688  91.6899109  43.0698204  92.1685886  91.7655945  43.9131021
  91.3118649  92.5447273  42.9384422  81.5360165  31.3763285  68.6192560
  81.2879658  30.9885359  67.7800226  80.8026409  31.1771345  69.2012453
  82.8370762  37.6992774  85.0175571  82.0503616  38.1019330  84.6498871
  83.4346485  38.4323072  85.1652336  28.9998698  24.2724085  25.2063179
  29.4799185  24.4229937  26.0206342  29.6630573  23.9576936  24.5920181
  64.3611670  99.7167397  42.8796911  63.8553905  98.9084148  42.9635811
  64.9013805  99.5815468  42.1011543   5.9816867  15.4509830  64.1291094
   6.1514759  16.2934506  63.7076235   5.3974771  15.6610882  64.8576593
  95.0059605   5.7479173  64.3977308  95.8331966   5.3837514  64.7128201
  94.7985077   6.4448380  65.0202227   7.4194849   6.7769456  72.4209213
   8.1936437   7.3235655  72.2863245   6.8023086   7.3451227  72.8818989
  68.4120846  89.9628639  81.3300514  68.1274605  90.4889488  82.0773506
  69.1694450  90.4327297  80.9809494  68.2022572 104.0609169  72.7888727
  67.3632765 104.4600010  73.0192661  68.2176113 103.2372952  73.2763481
  64.9832487   8.6177272  68.2117605  65.3477621   7.8900266  68.7155581
  64.3874836   9.0553510  68.8198566  95.2737427  26.6024184  88.5372639
  95.7802200  27.1640015  87.9504585  94.4830036  26.3894796  88.0416679
  91.0210514  32.1488857  89.0190792  91.0210705  31.1997676  89.1431999
  90.7216454  32.5001001  89.8576736   5.7419342  38.0323267   0.8563227
   6.0309982  38.9401960   0.7644039   6.4985889  37.5116110   0.5869523
  57.1423578  86.9235706  70.5563593  57.3779631  87.5379372  69.8611832
  56.2976027  86.5655804  70.2834702  90.8232784  23.1376028  51.4942026
  90.5651474  24.0350199  51.2838602  91.6229153  23.2333970  52.0115376
  34.1114306  11.8686318  63.6715746  34.4333863  10.9685838  63.7214804
  34.4546604  12.2001171  62.8417873  92.1306133  75.1777363  50.8596230
  91.3071060  74.7184515  50.6949043  92.4711990  75.3788328  49.9879646
  87.3820210  85.4724121  27.3859692  87.8508663  85.0864792  28.1258821
  87.3072243  84.7594833  26.7516518  83.0779369   0.5755490  49.4882345
  83.3050735  -0.0372058  48.7888288  82.2273214   0.9299726  49.2292643
  88.1285954  16.1269164  77.9681540  87.5834846  15.3405249  77.9422140
  88.7058163  16.0433710  77.2091675  13.2511079  18.2254183  61.8259144
  13.4808493  18.7804306  62.5711727  13.2252455  17.3390532  62.1863604
  72.2065632 105.4863419  87.2079659  71.5931694 104.9953980  87.7547264
  72.4491970 106.2435960  87.7408123  13.6908519  13.1942165  73.0087423
  14.2631900  13.3870971  73.7513447  12.8969228  12.8353453  73.4051228
  49.6246147  85.8351040  53.8044119  49.3129063  85.6628227  52.9159355
  50.5730152  85.9259129  53.7121105  79.5508242  98.9545536  77.4169731
  79.8608685  99.8487759  77.5600719  79.6091270  98.5401917  78.2778645
 101.5855598   1.0848241  70.4974031 101.7706966   2.0219514  70.5586433
 102.4438381   0.6784919  70.3770399  60.1839495  94.4801426  56.1617756
  60.0800753  94.6304417  57.1013784  60.5253124  95.3077888  55.8231211
  17.3200572   0.7161056  49.6049690  17.9914987   1.3274778  49.9076605
  17.7951598   0.0896053  49.0590668  60.6431818  93.8701630  47.7220011
  60.8386087  94.6925259  48.1711817  59.7645330  93.6366272  48.0214453
  62.7487993  77.9401779  74.6578646  62.2515774  77.4246836  75.2928972
  62.7268648  77.4181032  73.8558769 100.4693890  24.0372229  55.6961584
 100.7146072  24.6205997  54.9779892 101.2750244  23.9273858  56.2012529
  31.2251258  16.1310244  49.4066095  30.9724998  17.0533895  49.4472885
  30.4419780  15.6820083  49.0883398  82.2179604  92.7274895  39.9356151
  81.6666794  93.2087803  40.5526066  82.2805786  93.3015251  39.1722059
  66.6194534 102.1528244  10.5867732  65.9194422 102.3990631   9.9821407
  66.9371700 101.3126659  10.2559602   1.0007050  16.7722118  31.5285492
   0.2101167  16.2349176  31.5787244   1.4509766  16.6138470  32.3582530
  75.3475857  95.5726719  30.0527263  74.6937466  95.6461811  29.3575096
  75.3841925  96.4470387  30.4405165  61.4532995  80.5959034  41.9290304
  61.8267536  81.4382172  42.1884012  62.0254660  80.2862453  41.2269115
  89.4097996 104.1142941  47.0120668  88.8292408 104.5381546  47.6441479
  90.2362823 104.0042973  47.4822426  86.4725018  33.8531709  53.6843061
  87.2399044  33.8746905  54.2560196  85.7283783  33.9505124  54.2784691
 102.4647999  21.3845849  63.6908197 101.8638897  20.6402516  63.7241077
 101.9956589  22.0487547  63.1858253  94.1534328  36.5567946  73.7534761
  93.4332180  36.2732744  74.3166399  94.6870995  35.7712913  73.6334085
  59.9314547  73.9548922  70.4581547  59.0997601  74.2164803  70.0630760
  59.9437332  73.0008888  70.3809357   6.2914681  69.2439651   2.0525452
   6.0163432  69.9600410   2.6250619   5.7190776  68.5143185   2.2896424
  74.1667652  83.0186653  44.9656582  73.9213705  82.2024155  45.4012537
  74.9282455  82.7868938  44.4340038   6.7545772  11.2966490  53.7626791
   7.2419202  11.2506819  52.9401112   7.0486265  12.1113849  54.1700792
  76.8535805  62.3851204  46.2952185  76.3339138  62.8582191  46.9451094
  76.2823439  62.3248816  45.5295277   2.6591823   0.9972496  55.8639336
   3.0745003   1.7286661  55.4070187   2.2749063   1.3912421  56.6470909
  79.3581009  90.4902363  74.5634699  80.2279282  90.5643368  74.1708469
  79.0062666  89.6717453  74.2134666  73.8060522  69.0410900  59.5722914
  73.6147356  69.6886110  58.8938046  74.4941235  68.4937716  59.1938305
 110.8161640  60.2843523  48.7772417 109.8998642  60.3355074  48.5052061
 110.9264374  61.0148001  49.3859482  99.3862152  14.6477449  30.0115466
  98.8069820  15.0447786  29.3610930 100.0704861  15.3017640  30.1538658
 106.5115070   5.6797755  58.5823059 106.2340736   6.3147688  59.2426395
 107.4576759   5.6038260  58.7056828  64.4593525  95.0710201  85.8881187
  64.3453693  95.5096531  85.0450039  63.7833309  95.4510975  86.4491653
  79.2993021 100.1107311   8.4368998  78.7869740 100.8339596   8.7984002
  79.2422771 100.2273560   7.4885452  34.5899367 102.0999813  47.1832514
  35.4165459 102.0295048  46.7057800  34.7568011 101.6606331  48.0171347
  82.1852493  79.2102766  32.3721385  82.2692013  80.1179504  32.0800567
  81.4943409  79.2346334  33.0341697  87.7567959   5.3447592  31.9821048
  88.3197498   5.0345087  31.2728357  87.2916412   6.0933727  31.6086841
  87.4799347  89.9890900  52.3744631  87.5053978  89.3571281  53.0929375
  86.8526840  89.6198368  51.7528152  81.4360523  66.3395119  28.3384681
  81.9450188  67.0665359  28.6970925  80.7717609  66.1608934  29.0040851
  95.8446407  99.3218517  39.9135828  95.9810829 100.0552368  39.3137884
  95.4354858  98.6447048  39.3747830  78.5521269  95.1760387  27.5439906
  79.1326332  94.6816254  26.9653797  77.9486036  94.5209503  27.8944874
  87.3956776 102.2404289  80.3318024  87.6327038 103.1233025  80.6156635
  88.1305408 101.9586277  79.7870111  58.8752365  68.1502962  62.7618408
  59.3889570  68.1411791  61.9542265  58.0962086  67.6335955  62.5560045
 109.4733810 103.4044266  53.0539608 109.0495110 103.2332802  52.2129631
 109.8950863 104.2562294  52.9406786  91.6133118  79.5003128  76.1521387
  90.7346058  79.2691517  75.8510208  91.6922379  80.4357338  75.9650850
  84.6071339  27.0049000  46.6516161  83.9066124  26.4453268  46.3163757
  84.6933937  27.6984501  45.9975719  70.5920219  66.6319799  33.8215756
  70.2807522  67.1663761  34.5521641  71.3837433  67.0771170  33.5194874
  75.3035593  89.2321110  57.8442812  76.0105324  88.5957336  57.7373505
  75.4296684  89.8530293  57.1267891  66.2650776  74.3280411   5.8368623
  67.1725893  74.6281481   5.8877611  66.3048697  73.4027529   6.0787052
  77.1123409   0.7902829  25.7074785  76.5009403   0.5524670  26.4045167
  76.6048956   1.3575423  25.1270080  97.1794701   2.6213628  64.3978596
  97.3083591   3.2959121  65.0646448  96.9401360   3.1073150  63.6086798
  11.7441976  19.0063941  49.4087362  11.0717809  18.9443791  48.7303257
  12.2173417  18.1761372  49.3536091  64.0124750  78.3885479  80.4569149
  63.0783081  78.1804895  80.4404831  64.3949795  77.8262234  79.7833347
   3.0127373  31.3427973  90.4404354   2.8923368  30.7271910  89.7174072
   2.3665792  32.0304418  90.2796364  90.2129745  18.6040330  55.0260019
  91.0583401  18.9521861  54.7424793  90.3953552  18.1893814  55.8692312
  58.9360142  88.1396961  34.1518140  58.7188768  87.2139835  34.2619586
  59.8704338  88.1920719  34.3526959  76.6812658  67.0432186  52.6639462
  77.2540283  66.5980864  52.0394230  75.7969809  66.8823385  52.3347139
 104.9346828  66.6317368  61.0748577 105.6980610  66.5783167  61.6498661
 104.4123745  67.3479223  61.4361000  94.5935154  10.5414414  56.5152931
  95.1253223  11.3301325  56.6219664  94.7792244  10.0199139  57.2961569
  65.0461531  20.0067496  79.3130016  65.2530193  19.0911281  79.1257095
  64.2008305  20.1530004  78.8884163   8.4484434  35.9320331  20.0619102
   7.6238120  35.8852768  19.5781446   8.4712583  36.8230915  20.4108047
  87.7635765  18.4188008  20.6536841  88.5774326  18.8397753  20.3768349
  87.9071808  17.4871731  20.4873085 108.2401180  17.8127658  12.2371089
 107.3811245  17.6042867  11.8698347 108.8517380  17.2711241  11.7383242
  77.2320938  70.7245493  51.4251995  76.2861776  70.7676506  51.5652370
  77.3459864  70.9240341  50.4959679  83.1508732  79.4125223  42.0200634
  82.8068638  78.7227821  42.5876379  83.1038380  79.0428543  41.1383820
  68.5394192  87.1773529  50.8498430  67.9265118  87.6964760  50.3291845
  68.0907583  86.3429070  50.9863472  67.4870729  75.4502726  37.7213645
  68.1672525  75.1419497  38.3201313  67.9488468  76.0225916  37.1086264
  12.2770894  11.7086303  50.5679083  12.2784078  10.7719707  50.3706789
  12.4037123  11.7540193  51.5156078   3.5478532  94.1793919  43.2408237
   3.6457184  93.6286545  42.4640751   4.3136972  94.7533894  43.2254839
  49.3357420  75.6989622   6.7461765  49.8856306  76.1514425   7.3857993
  49.3690538  74.7793436   7.0096600  70.1472807  89.4782734  50.4766846
  69.8167896  88.5863400  50.5838013  70.1868486  89.8275661  51.3670015
  58.1836700  92.0339775  61.3705683  59.0510893  92.3208427  61.6560793
  57.6901817  92.8454685  61.2515116  22.3130894  35.2714276  51.8018723
  22.3392797  34.7097278  52.5764942  21.5678596  34.9473238  51.2960815
  17.2167194  83.8948727  44.4805717  17.4821222  83.7137127  45.3822231
  17.8659248  83.4402275  43.9438629   0.0248255  15.8326316  37.9040146
   0.0418507  15.1069903  38.5280228   0.8479762  16.2973714  38.0545878
  60.7776356  96.2279510  22.9923272  61.6096830  95.8129978  23.2197905
  60.1449156  95.8447647  23.5998344  33.3743143  42.7987003  43.0973673
  34.0458250  43.3478832  43.5019779  32.5744009  43.3219576  43.1481028
  72.3649311   6.7646843  60.6796932  72.3214197   5.8924365  61.0715103
  71.6083956   7.2272021  61.0401917  97.3773670  38.2202005  80.5767250
  97.7208614  38.6641812  79.8013973  96.7728806  37.5644684  80.2291107
 109.3765163   8.7828135  49.7251844 110.3002357   8.5837227  49.8780012
 108.9327621   7.9387081  49.8076010  73.4796095 102.9413605  36.9000435
  73.5758162 103.8583183  37.1572685  72.6796675 102.9226398  36.3747048
 101.5813160  25.6709337  53.7542105 102.2654343  25.3032684  53.1947136
 101.0557652  26.2125683  53.1654310 106.3015842  16.5605998  29.6049118
 107.2270679  16.7828155  29.5032549 105.9869766  17.1519792  30.2886677
  16.5432262  18.6937213  44.4385195  15.9606862  18.4617293  45.1617479
  16.8248212  19.5872259  44.6349525 110.3742218  12.4830973  44.8665380
 110.8274651  12.9734576  45.5523586 109.4614792  12.7631307  44.9352407
   8.0912435  49.9595499  59.0669537   7.3039383  50.3204489  58.6593580
   8.7054282  50.6932688  59.0927315  19.0124798  20.7543969  35.8169723
  18.0648601  20.6521654  35.7286739  19.3735933  19.9290311  35.4935527
   6.2280083  17.1697354  23.9436889   5.4673904  17.6137459  24.3185830
   6.9424850  17.8001261  24.0351343  51.7133665  10.2515554  39.0983772
  52.3193932  10.0155044  38.3960676  51.0695934  10.8215117  38.6777353
  33.9670253  48.4447479   0.1821641  33.5558963  49.3085432   0.1495042
  33.2357216  47.8349733   0.2801471  86.8351078  73.3524895  79.7729921
  86.2174416  73.9892912  80.1324272  86.3224125  72.8545666  79.1362524
  95.3207684  13.1215501  74.9647474  94.6136951  13.5653746  74.4964504
  94.9241257  12.3116446  75.2856159  26.9582343   8.5906404  32.2051406
  26.3027692   7.9063821  32.0695400  26.4695311   9.4097525  32.1247911
  26.2100172   7.1591038  58.3312893  26.5196323   7.5150746  59.1641521
  25.6408453   7.8417063  57.9758644 103.8687706 103.6779690  39.7322106
 103.3086014 103.8922310  40.4782248 103.5239124 102.8473568  39.4045138
  47.2629070  78.0097675  23.6182594  46.5679264  77.3678970  23.4725332
  48.0727243  77.5022554  23.5648227  33.2397604  11.9528103  38.8864636
  33.4812355  11.4095402  39.6366501  33.8139462  11.6554427  38.1806898
   0.0666605   7.4852014  39.0372062   0.5153587   7.7246571  38.2263041
   0.4393556   6.6363490  39.2754912  16.5202808  11.6262674  39.1563177
  15.5871618  11.4130890  39.1649556  16.7932630  11.5438414  40.0700569
  76.9206476   1.6870758  79.0548086  77.4215078   0.8976051  78.8496065
  77.1537781   2.3053810  78.3622885   5.3379369  91.7251205  59.1321611
   5.8085364  92.5322723  58.9241409   4.9367213  91.4615726  58.3040285
  36.4770555  29.8750710  67.1464252  37.2140002  29.5198226  67.6433563
  36.7541337  29.8162198  66.2320948   4.8844299  51.3116169  25.7886529
   4.0650424  51.6853762  26.1129045   5.4763585  51.3439083  26.5401912
  99.2532730   5.8498555  69.8744965  98.4016705   5.7185119  69.4576597
  99.1138744   6.5781462  70.4797983 107.4196529  14.5178246  62.3260069
 106.8193436  14.8236966  63.0059385 107.1907711  13.5968292  62.2010612
 105.4170895  38.8317585  45.7832289 106.0701084  38.1486320  45.6311321
 105.0378513  38.6151934  46.6349983  51.1012173  39.4152284   1.7515044
  50.1586676  39.5082092   1.8900111  51.3541031  40.2107716   1.2831059
   1.1562505  12.6950061  75.5396080   0.5294681  13.3984053  75.7087374
   2.0114356  13.1239676  75.5693054  51.9460249  93.7282085  75.3911495
  51.8514013  92.8162861  75.6662703  52.6511860  94.0719223  75.9396362
   1.2712366   2.0983468  57.7637815   1.8202574   2.5309017  58.4177732
   0.6299192   2.7628705  57.5120878  10.0118637  24.4781542  56.4839363
   9.4778377  23.9744115  57.0981789  10.3175044  25.2293086  56.9924450
  26.6352749  85.8289528  61.0723782  26.0862589  85.2967167  61.6481686
  27.1818781  86.3408375  61.6685581  63.1348467  13.4344351  52.4974155
  62.5135803  13.3828926  53.2237816  63.9953232  13.4047019  52.9156494
 103.5184669   1.4765610  53.1374788 103.6096287   2.1385467  53.8228226
 103.3975410   1.9802313  52.3325443  80.1115608  89.0206718  49.4335794
  80.1110554  89.6970272  50.1109123  80.6261826  89.3970776  48.7196350
 111.7026997  93.1569672  57.1378708 111.5773773  94.0435696  56.7995501
 112.5399971  92.8759193  56.7688560 103.5662842  30.2663398  41.9737291
 102.9999256  29.9227118  42.6646709 102.9609108  30.6053782  41.3143253
  17.6658630  10.8136833  41.8106031  17.1872473  10.0462604  42.1240044
  18.2089329  10.4817641  41.0956669  53.3925343  97.4530792  58.6198854
  52.9667854  96.6670609  58.9621544  52.7007246  97.9120064  58.1434155
   8.7724167   4.6983722  62.0552778   8.9042836   5.1761097  62.8741837
   9.5094830   4.9605229  61.5036917  31.8495989   5.6249255  29.1478920
  31.2690616   5.1652265  29.7544265  32.6189947   5.0597912  29.0780044
  24.4178510  24.1085315  65.1641703  23.8777971  24.2290425  64.3831110
  24.6896148  24.9938059  65.4063797  81.1921024 103.4007931  44.9877977
  82.1143913 103.2276726  45.1765871  80.7217979 103.0383015  45.7385635
  20.1111245  27.3541808  68.6545849  19.3576455  26.7681861  68.7260723
  20.8296275  26.8713975  69.0631247  97.2507381  12.0166266  84.3341351
  97.1852875  12.2544956  83.4092808  97.6253891  12.7906418  84.7545815
  30.0081706   4.5629188  36.6635656  29.6965456   5.2543491  37.2475576
  29.4265747   4.6101019  35.9047818  45.2634048  84.7587872  70.1886559
  44.9321079  84.5134163  69.3247890  45.8000469  85.5349159  70.0277901
  84.7050762  81.4409447  49.2271805  85.3064919  80.7491970  49.5028687
  84.4348240  81.1858559  48.3450651   5.4581797  59.7616816  45.3567505
   4.9711135  60.5804253  45.2637243   4.9118513  59.1072083  44.9215269
  82.4437714  24.1717339  89.6898556  81.7056942  24.4391465  90.2375507
  83.2029343  24.6003795  90.0850296   6.0720760  15.4968476  56.8156815
   6.5659612  16.2173700  57.2070312   5.1628381  15.7958353  56.8268538
 111.8171215  50.0384140  90.6765366 111.4535713  49.2443991  91.0684586
 111.2044144  50.2618504  89.9759007 105.3946781  34.3884468  29.5312476
 104.5184135  34.2205071  29.8779202 105.2774620  34.4044113  28.5813856
  45.5956268  12.9506803  42.1538258  46.2951756  12.8913629  42.8044796
  45.4285860  13.8891494  42.0666218  49.4018126  92.2711468  85.2892113
  49.5978117  93.0931568  85.7387829  49.5695496  91.5938663  85.9444904
  11.4821887   5.6631595  84.5302296  11.7954397   6.1558390  83.7716961
  12.2663760   5.2429861  84.8834133  85.2887630 104.5418549  89.5439053
  84.3412685 104.6761608  89.5648766  85.6568241 105.4242706  89.5898342
   5.7501107  99.7456646  37.2424769   6.2675279  99.4566822  36.4908099
   5.7246661 100.6992435  37.1633554  11.4814568  13.7840366   9.2802203
  12.1579206  14.4569504   9.2039597  11.1658835  13.6591446   8.3852077
  61.4312601  65.8414507   4.8049867  60.7386398  65.1895714   4.9125338
  61.3447428  66.4111614   5.5692995  30.9944010  15.5811870  27.9549170
  31.4098954  16.3870645  27.6480651  31.5534449  14.8805666  27.6190138
  36.9730830  11.1882496  36.6334176  37.1449780  11.0969222  35.6962180
  37.3702836  12.0266235  36.8691969 107.6191998 104.8131275  57.9813194
 107.7772999 105.5380249  57.3765373 108.3303356 104.8738861  58.6191463
  48.5433245  99.1339493   6.3973445  48.0195045  99.0866852   5.5975896
  49.3457508  99.5832539   6.1318839  37.6879954  11.2063217  59.4796753
  38.2218218  11.9503498  59.7583866  37.6373005  10.6447947  60.2532053
  87.6085281  10.5965197  57.9116106  87.8310490  10.1959205  57.0712328
  86.9053173  11.2121010  57.7047777  29.3157101  25.5848002  66.6354561
  29.2739916  25.2323532  65.7464838  28.6381698  26.2605953  66.6572189
  74.5033884  75.5281258  77.2638512  74.5714378  74.6291161  76.9423246
  73.6842871  75.8544064  76.8912268  99.0852737  27.7079177  49.3323374
  99.1763687  26.9809222  48.7163782  98.2250500  27.5774002  49.7313595
 104.6689034  36.9442081  74.2697668 105.5287457  36.9639969  73.8496447
 104.0832901  37.3592329  73.6364794  62.0623922 100.5895424  67.0705557
  61.9330168 101.5274620  67.2112608  61.3888454 100.1716900  67.6071835
  12.3182487  23.8759708  48.0313540  12.5380409  22.9444766  48.0158091
  11.5435636  23.9486051  47.4738407   8.2112235  10.7355213  59.0263844
   7.4685758  10.1326382  58.9911795   8.2878500  10.9673607  59.9519157
  92.5925541   9.7697067  33.0259824  91.7325020  10.1465154  32.8401113
  93.0597401   9.8161566  32.1918297   2.2210039   7.6355290  47.2204113
   1.5374584   8.3003092  47.3044682   2.0584047   7.2312295  46.3681602
  61.5960407 105.3348160  76.8978214  61.7484474 104.4130516  76.6896152
  60.7881308 105.3340054  77.4111557  51.3518858   6.0834032  63.8494635
  50.8677435   5.8135456  64.6298599  51.9848537   6.7256963  64.1704702
  14.2968833   8.8537204  72.6922321  14.0507209   7.9313219  72.6228333
  14.5781505   8.9588201  73.6011219  81.6711807  79.4256163  67.0843649
  81.3965702  79.4336939  66.1674404  82.0799637  80.2805233  67.2195005
  95.7541180   6.5943718  76.8197107  95.4709530   6.9143862  75.9631824
  96.3165665   5.8455992  76.6216707  20.5257249  14.6748841  56.9255495
  20.2005458  14.2653239  57.7272654  21.1603475  14.0487218  56.5771151
  10.0433040  28.6833191  55.7544279  10.8553720  28.3274770  55.3936577
   9.5736676  29.0265393  54.9942446  57.9984093  99.6322346  67.8941774
  58.8168716  99.8204231  68.3534479  58.0782747 100.0980473  67.0617914
 101.0858727  14.0089309  54.5348263 100.7657719  14.8933351  54.3570662
 102.0195293  14.0458703  54.3270874  99.8790073  31.8597627  56.0044289
 100.1655293  32.6032233  55.4739571 100.6879330  31.4001012  56.2293196
  66.8827105  65.3696632  61.8177223  65.9565258  65.3386068  62.0574093
  67.0730162  66.3023758  61.7174339  46.7476749  70.9855461   5.4579514
  47.5913715  71.1070490   5.0224668  46.8142986  70.1258898   5.8736283
  95.6329155  26.0973001  42.4569130  96.5128136  26.4601517  42.3552179
  95.1147175  26.5323162  41.7798185  14.0438402   1.7568539  58.2546902
  13.5959482   1.0502391  57.7895880  14.7137237   2.0600611  57.6418638
  12.7035367  17.1845603  31.8343925  13.2893014  17.7155232  31.2947726
  12.1726334  17.8227639  32.3109102  27.7401304   4.0847641  74.4505358
  28.2778406   3.2929039  74.4430923  26.9448113   3.8298315  74.9181986
  21.1769700   1.7481083  60.2011681  20.3554225   1.9681886  60.6403208
  21.5248585   2.5902462  59.9078894  77.0493460  99.9637318  52.7883720
  76.8472290 100.3235435  53.6520386  77.8445196  99.4483566  52.9237175
 100.8168983  73.3052397  76.1920977 100.9454536  73.1006718  77.1183014
 100.3455830  74.1383600  76.1939955   1.6960932   6.9246852  49.8961401
   1.3727744   6.0248542  49.8514080   1.8909931   7.1546048  48.9876366
  76.9014025  95.4632187  61.7817545  76.9364929  95.7849789  60.8809423
  77.1706009  94.5467663  61.7193985  93.9168930  92.7691650  69.7256804
  93.7574196  92.1776962  70.4611826  94.8704147  92.8059959  69.6503353
 100.6061840 103.8750076  33.1386757  99.7295094 103.5541153  33.3500981
 101.1957455 103.3008766  33.6275721  84.3703461 100.5991840  86.6926098
  84.9879074 100.8422852  87.3823547  84.9059105 100.5402946  85.9014511
 100.7731915  49.4529343  80.4025650 100.1021004  49.0085745  80.9206295
 101.4133739  49.7538662  81.0474205  65.1023531  78.8897848  28.9242053
  65.4566145  79.1652441  29.7696972  65.2559233  79.6365404  28.3454108
  76.6640806 101.5398884  54.9340487  75.8781099 102.0860577  54.9201632
  77.3896170 102.1642590  54.9349689  89.8580265  78.2958174  68.5165358
  89.6214485  78.2731819  69.4437647  90.1068687  77.3947239  68.3107758
  82.2794914  88.5597992  46.5293980  83.0317974  87.9732800  46.4503241
  82.5268269  89.1748428  47.2198915  15.3014147  19.6829879  46.8758011
  15.7580030  20.4250550  46.4794445  14.3726635  19.8842752  46.7611885
 106.8095493   6.5648580  48.1012869 107.2087860   7.0573437  47.3841381
 106.5194416   7.2352636  48.7198544  92.5186539   1.7139032  68.3650827
  92.5788784   2.6297769  68.0934572  93.4117508   1.3799281  68.2810354
  61.7814398  84.3683147  65.4681444  61.2369394  83.6208153  65.7151127
  62.2760773  84.5765781  66.2607288 101.7231274 100.6181335  63.5685015
 102.3537445  99.9011230  63.6351824 102.1929455 101.3821888  63.9027452
  43.0017281  77.7718210   3.7300193  43.2857943  77.4316263   4.5784339
  43.8063574  78.0825567   3.3149901 110.1312828   4.2142716  89.4975662
 109.6636868   3.9716235  88.6983776 110.8704662   4.7402158  89.1922569
 100.6871700   9.8719096  40.6279087  99.7604561   9.6443886  40.7031584
 101.0370731   9.2449790  39.9948549  85.0297165  94.1429901  84.6540928
  85.2548790  93.4258270  84.0614605  84.2482376  93.8369560  85.1143837
  20.0574865  58.1467484   0.4774269  19.4468679  57.6826466   1.0501274
  19.7334375  57.9758544  -0.4068867  24.4184518   5.2897131  56.2300348
  24.4149399   4.4139707  55.8436489  25.1398540   5.7416981  55.7924032
  36.5368438   6.3476926  25.1327801  36.8426609   6.7764610  24.3334889
  35.7877779   6.8727398  25.4146624  94.9479198 104.0280819   1.5210994
  95.5857277 103.6791039   2.1437182  95.3831577 104.7867680   1.1322589
  66.4422083  25.7908249  17.9451656  65.5278063  25.9139442  18.1999922
  66.8777227  26.5983200  18.2181299  35.3522658  17.3702168  69.9617529
  35.5322766  17.5565016  69.0402746  36.1567855  17.6174080  70.4176855
  46.3496399  83.6318016  37.8733063  45.5594873  83.1092167  37.7362490
  46.3319588  84.2815399  37.1706247  31.9408560  13.2339334  43.5631657
  32.1375847  13.3725297  42.6367140  31.3773298  13.9701760  43.8011074
  35.1246309  30.2489400  60.8449125  35.3550291  31.0510182  61.3137627
  35.9469151  29.9568748  60.4514933  20.3894711  12.1809196  76.8902349
  19.8458111  12.9113996  76.5951681  21.2216067  12.5854468  77.1354723
  60.7396793  19.8777103  36.9631577  59.9022150  19.7512686  36.5171790
  60.9238291  19.0316856  37.3712802  23.6441159  12.6603448  23.0542898
  24.0709186  12.2234416  22.3172760  22.7405429  12.7890456  22.7658081
  14.0219891  86.7479610  64.8940086  13.1660521  86.5034580  65.2458906
  14.1792190  87.6279068  65.2363539  16.1516261  10.8240902  36.5636325
  16.2055850  11.1463082  37.4633527  17.0330131  10.9481907  36.2115145
  98.7393379  70.0471020  36.1592913  98.4280300  70.3091860  35.2928996
  99.4224930  70.6833076  36.3708925  26.9200921  17.9724729  48.3253098
  27.1086621  18.8088596  48.7509060  26.5099835  17.4428797  49.0091038
  14.1386652  32.6441050  24.0011787  13.2641113  32.9860568  24.1868067
  14.4513869  33.1722021  23.2666373  21.9179177  21.5363336  61.6929483
  22.1538496  21.8911815  62.5500679  21.5834641  20.6593204  61.8806171
  77.6028728  91.7354202  41.2014818  76.8100166  92.2651196  41.2853146
  77.2821379  90.8477783  41.0419464 110.1058674  15.3081822  62.6653147
 109.2198277  15.2789330  62.3043346 110.4986191  16.0880697  62.2732019
 110.7695389 103.4133816  64.7788715 110.6135750 104.3222046  65.0356722
 111.6067410 103.1898880  65.1855183  12.5510180  12.5404143  25.3647828
  12.0359159  12.7922058  26.1312699  11.9474816  12.6374698  24.6281981
  50.6252146   3.7871459  19.9964523  51.4681625   3.9989918  20.3974414
  49.9819040   3.9670062  20.6820416 101.9468975  41.6857481  37.8621078
 102.2821045  40.9124279  37.4084044 102.4087238  42.4199343  37.4572420
 108.4675121 104.1878796  19.4518816 108.3041191 103.7233639  20.2727079
 107.6114273 104.2294788  19.0257084  52.5320768  41.4502907  54.4415188
  53.2697487  41.9531918  54.7867155  52.7917528  40.5359459  54.5545387
  68.6703587  90.9008884  63.6866808  68.5433149  90.0007439  63.3869553
  68.4983444  91.4375019  62.9129267  -0.1807326  91.7758751   6.2588030
   0.7663709  91.8797684   6.1670697  -0.3230875  90.8302307   6.2172389
  31.8192458  29.1068172  25.9862208  31.4009356  29.7587085  25.4238296
  31.1752009  28.9343643  26.6730213  48.1602669   3.4555957  34.1861987
  48.6532116   3.6458385  34.9843502  47.7541637   4.2898378  33.9509249
  13.5771346  15.0904286  52.8542185  14.0149868  15.2443063  52.0170546
  13.9658391  15.7316017  53.4492254  10.2692938  64.5762491  45.4768276
  11.1306047  64.1986561  45.2985048   9.6561378  64.0006399  45.0197172
  43.6156511  14.5729899  56.9316483  42.8923607  14.4410741  56.3187218
  44.3426752  14.8692203  56.3840008  45.3491592  19.2371428  39.9743032
  45.7320499  20.0451946  39.6327257  45.9040785  18.5414422  39.6217442
  15.2764118   2.0883334   9.2963976  16.0458517   2.5857416   9.5734864
  15.2235687   2.2352487   8.3520168 106.7054367  95.7956982  24.2084551
 106.3855934  94.9003696  24.3193913 106.8606567  96.1068153  25.1002789
   4.5323294   6.5619564  30.9823966   4.7188446   7.2417450  31.6299534
   4.6500537   6.9968814  30.1378775  30.7866931 106.1715031  46.6682673
  31.0931420 105.3584576  46.2666798  30.5888915 105.9317589  47.5735998
 109.3173790  15.1210392  33.6221290 109.6255589  15.2432323  34.5200849
 108.3711815  15.2564633  33.6731243   4.6338141  75.3966618  75.3716469
   4.0408841  76.1455917  75.4330587   5.3472471  75.7013512  74.8109245
  21.1878538  26.5996146  42.6363945  21.8128729  25.9263277  42.3675680
  20.9017682  27.0019770  41.8163395  28.3972168  10.6078541  49.3425226
  29.2131352  10.5336332  49.8374987  27.7166319  10.3437376  49.9616146
  19.7184885  26.0595345  44.8104811  18.8542867  26.1767602  44.4159603
  20.3320193  26.3362694  44.1298676 102.9217339  26.1945105  46.0393286
 103.2909966  25.8229113  46.8404484 103.6500263  26.6677046  45.6369495
  65.9611750   1.6528338  37.5060773  65.5730772   2.5187534  37.6317525
  66.9054413   1.8081963  37.5273705 111.3617516  94.7834206  16.8021560
 112.1668720  95.2852917  16.9291914 111.2798500  94.6984386  15.8522606
 101.4590740  77.9880095  75.5141735 101.9096947  77.4904442  74.8318195
 100.6644726  77.4848938  75.6922770   1.5488550  88.4044933  63.8936377
   0.9406583  88.2081509  63.1810522   1.5687139  89.3605900  63.9349794
  20.6200385  11.7874897  26.9496942  21.4466834  12.0239341  26.5289998
  20.8261728  11.0038662  27.4592757 107.0803928  98.3870697  63.4682178
 107.6407146  98.7785435  62.7981281 106.4317417  99.0634537  63.6631107
  46.1898375  15.6942034  55.7089663  46.4808798  14.9597251  56.2493992
  46.3344860  15.4015744  54.8091459  52.9685163  28.1123114  13.5005558
  52.1144819  27.6952624  13.6142659  53.5999298  27.4053550  13.6338198
  33.1578302   5.7078731  26.5173197  33.1148553   4.7554916  26.6030788
  32.3892617   6.0259306  26.9910002  70.7723570  91.7652702  42.4382257
  70.7260370  92.7161217  42.3383760  71.6767406  91.5959263  42.7021170
 110.9873390  17.7457249  70.1887608 111.4546299  17.5446141  69.3779469
 110.8478928  16.8938696  70.6024408   1.0892905 102.6294422  74.9191427
   0.9836596 102.7540970  75.8622932   0.2029564 102.7082157  74.5663834
 102.8276539 105.6014729  42.6966190 103.4955406 105.8492661  42.0572710
 102.0001888 105.6829357  42.2223854   8.0384672  90.9469795  42.6993370
   8.7641394  90.9798527  42.0760012   7.2649705  90.7882690  42.1582794
   6.7690521 102.3776722  36.0391808   6.9924515 103.2266331  35.6576252
   5.8766323 102.4896622  36.3667107  96.3479328  72.9594278  38.8220572
  95.7085419  73.2535791  39.4708157  96.6025543  72.0848370  39.1161585
 107.2033882 101.7263889  63.9297533 107.1538162 102.6551056  64.1561556
 108.1390762 101.5557289  63.8220549  37.9346371  34.5785832  26.7096210
  37.9537344  35.3305221  26.1176300  38.5383487  33.9485621  26.3161254
  75.6500387  88.3718872  52.6054859  76.2193871  88.4073162  51.8368340
  74.8757696  87.8940105  52.3082161  68.1377316  97.6271629  61.4979172
  68.9759541  97.6325035  61.0357666  68.1866074  96.8641567  62.0738173
 112.3500443   6.9528013  55.4351187 112.6449680   6.9390100  56.3456488
 111.6839790   6.2669218  55.3886795   2.9851109  28.3145475  48.4958124
   2.6637906  27.5603127  48.0017328   2.1928734  28.7493348  48.8113308
  14.4401002   6.9802439  64.9952793  13.5370779   7.2853023  65.0831604
  14.4791436   6.1893660  65.5330706  80.6290436  81.5834236  86.5412331
  81.2993145  82.0844460  86.0765362  79.9386501  81.4475632  85.8922863
   2.9770383  82.4514484  23.2631993   2.8665972  82.4459839  24.2139912
   3.7209749  83.0344391  23.1118369  60.0057077 100.4950905   6.6660738
  60.3207016 101.2633610   6.1898583  59.0586424 100.6211662   6.7244506
  57.4229145  65.7799482  91.3460827  56.9892025  65.7649803  92.1992493
  56.8426466  65.2781916  90.7735729 104.3215847 103.7240601  33.5472965
 103.9738655 103.3368874  34.3506837 104.6646786 104.5748806  33.8204527
  34.2054582  16.2721300  12.5331402  33.3301616  16.3272786  12.9166079
  34.5867872  15.4835546  12.9191041  37.1135092  56.4099216  11.8977296
  37.4147153  56.3936138  12.8061569  36.1785960  56.2118101  11.9517875
  51.9338226   5.6893837  29.6227121  51.1763048   5.4939008  29.0711832
  51.9294596   6.6429061  29.7064209   9.1558325  13.8366687  36.4135218
  10.0557375  13.5685515  36.2277341   8.8991207  13.3070469  37.1683931
  22.4441886  13.5179818  35.4324818  21.9746065  13.0093837  36.0935807
  21.8074584  14.1666746  35.1324749  30.6724024  20.8963227  53.3501005
  31.4403844  20.6403637  52.8392935  30.8819509  21.7718840  53.6752367
  92.5283813  74.4665909  32.7184176  92.3988533  74.2624044  31.7922640
  91.9150257  73.8932800  33.1781363   0.1863884  30.8367467   7.3674929
   0.7126500  31.2341833   6.6737175   0.7189204  30.9329963   8.1570351
  22.4720025  31.5071082  57.6141548  21.8625283  32.0805287  57.1494389
  21.9613004  30.7208657  57.8071213  60.0035286  78.0376911  50.7484150
  60.0569057  77.1054125  50.9587431  59.8460770  78.4645844  51.5905571
  11.0575521  15.6193912  51.4502096  11.7353117  15.3253794  52.0588398
  10.9104991  16.5367782  51.6804457  43.4561157  27.0232534  88.2389832
  44.1865206  26.7263627  87.6962185  43.1739664  27.8430247  87.8332806
 110.3748703   8.0932057  30.4173136 111.2275505   8.0879819  29.9824119
 110.0337219   7.2085202  30.2862334  75.5052423 103.9944839  11.3562453
  75.0145578 103.1968307  11.1582494  74.8490143 104.6909904  11.3344789
  54.6288776  15.8591652  73.8396597  54.7157240  16.1413813  72.9291439
  53.7002420  15.9772325  74.0394688   0.5112726  19.3167078  39.5961547
   0.4423220  18.4974515  40.0863552   1.3974554  19.6301329  39.7769237
  49.3365908  19.4680202  46.9999027  49.7680283  18.6189735  46.9039202
  49.5187235  19.7285247  47.9027843   8.3615118  16.2193024  40.4955244
   8.9901406  16.9139993  40.2994299   8.7460387  15.7503819  41.2361193
 109.8076439  85.7875633  28.0275559 110.5542374  86.2890720  28.3551502
 110.1670837  84.9217796  27.8340054  57.5773621 101.3615417  31.6422439
  58.1420851 101.0021877  30.9580016  56.7835903 100.8280945  31.6023326
  52.9254055   0.1635278  36.1211300  52.5567627   0.9171522  35.6602764
  52.4573231  -0.5898081  35.7611084  37.6027513   8.5774356  23.4037971
  38.1015491   9.3623722  23.6303067  37.3217988   8.7245154  22.5006557
  38.7656188  26.7439723  51.0325670  38.8268471  27.3574328  50.3003407
  39.6598458  26.4243317  51.1526489   4.5685795  88.0360985  64.3049574
   4.7938895  87.9029560  63.3842325   3.9323503  88.7511826  64.2948627
  92.0138836  83.0080414  76.1525631  92.8386211  82.8378487  76.6076136
  91.4821339  83.4839821  76.7904949  16.4490151   5.1025867  19.6173227
  16.5728652   4.3875265  18.9931583  16.9945931   4.8636326  20.3666401
  73.7122726  99.5415401  62.6115847  74.3286943  99.7164822  61.9004917
  72.8709793  99.4137383  62.1732616  87.7610588  66.6204357  53.4999943
  87.1630573  65.9452915  53.8206148  88.4210491  66.7023659  54.1884279
  79.8247671 102.4173355   3.1698167  79.3029976 102.0536518   2.4544716
  80.6342697 101.9066143   3.1595156 102.7262783  25.0688934  24.0159297
 103.3992481  24.9853992  24.6914840 102.9424858  24.3895340  23.3772159
  12.8533471  15.3010595  34.5676231  12.6625919  14.6603656  33.8825274
  12.0554137  15.8255982  34.6338940  41.2550640  16.5784812  46.5523052
  41.3804150  15.6343591  46.4566326  41.8368340  16.9648826  45.8977270
  32.5363564  10.2102494  44.4708300  31.7848039   9.6174794  44.4660568
  32.2541308  10.9590650  43.9456081  28.1757236  24.0909576  56.5082979
  28.9508009  23.8283539  56.0117817  27.4777484  23.5239220  56.1803770
   1.4258943 105.5820465  41.0073566   1.4607832 106.0648727  40.1815891
   2.1818776 104.9958611  40.9741879 106.5689182  66.9772577  16.0844636
 107.3968506  66.6183901  16.4037943 106.0932255  66.2182951  15.7469368
  16.0253775 103.7875175  19.4137502  15.6138539 104.2098427  18.6597466
  15.6226587 104.2083549  20.1733208  17.5726652 102.9132843  49.3965721
  16.8219388 102.3214149  49.4448614  17.7322435 103.1722736  50.3041458
  57.2224760  29.2514133  55.1497841  57.1937227  30.0577188  55.6648350
  57.9061842  28.7259936  55.5653715  29.1389894  24.7992921  21.8050957
  29.0345049  23.8509703  21.7276478  30.0172997  24.9719691  21.4659953
  28.4861445   9.5763355  53.7229967  28.2925105  10.2428150  54.3821955
  29.0289330   8.9356172  54.1824436   4.5001924  63.4496546  62.1148968
   4.3732348  64.2868328  62.5612640   4.6006957  62.8134918  62.8230143
  52.7101946  26.3987017  66.5058756  52.6444674  27.3363805  66.3251352
  53.6431265  26.2491488  66.6591835  13.8111794   2.5369018  73.2177639
  13.1634998   3.1896538  72.9519510  13.2917595   1.7756650  73.4765196
  19.2124128  35.4112220  24.1325951  18.4597838  35.6365681  24.6794033
  19.7491610  34.8438215  24.6859407  76.4506340 100.4301167  11.4981759
  76.8388271 100.5167389  10.6275237  77.1563387 100.6674194  12.0997560
  63.8949966  29.5565772  58.1418514  64.2831230  29.6554995  59.0112209
  64.5913982  29.8144364  57.5378942  41.1241388  28.2553363  32.6727295
  41.7486477  28.4064150  33.3822370  40.2674675  28.2759500  33.0992556
  13.4016454  84.7664452  38.7942958  12.8299952  84.5345306  38.0624032
  13.1768084  85.6748962  38.9952946   6.9079798  61.2857485  37.9857397
   7.2478008  61.9860840  38.5427737   6.6661453  60.5897522  38.5967517
  40.6101561  20.9209895  55.7337666  40.7773066  21.1620760  56.6449022
  39.7053480  21.1909676  55.5767012  48.8485861  17.6698804  19.7389829
  49.6423101  18.1802058  19.5783412  49.0672636  17.1165562  20.4888129
  41.4996147  47.2625399  40.6918478  41.0975933  46.6344404  41.2919331
  40.8713770  47.3440981  39.9742866  38.1683707  20.0807452  58.9416695
  37.4096894  20.4520440  59.3919706  37.8118420  19.7184587  58.1305790
  54.2780693   0.4041356  63.7856913  53.7174423  -0.3157645  64.0749741
  54.2308433   0.3753728  62.8300905  34.6466494  79.7399139  47.2058821
  35.5377531  80.0817871  47.1331835  34.6508908  79.2305899  48.0163145
  23.6208129  33.8706326  30.8811951  24.4140387  33.7164903  31.3942885
  23.0595756  34.3890786  31.4577842  35.8473873   8.8534445   1.9278343
  36.3132119   9.4896907   2.4704488  34.9555302   8.8496596   2.2754046
  35.9727430  21.9270587  35.4259682  35.0746918  21.5979433  35.3883433
  36.5174651  21.1404562  35.3982449  85.6232643 101.4717102  31.8037820
  84.8974514 101.7281437  31.2348700  85.2777195 101.5683746  32.6911855
  10.9324312   6.2011003  25.5315590  11.1879468   5.3781086  25.1148725
  10.3466702   6.6178119  24.8995256  31.9013906  72.8045845  22.9283166
  32.3480964  72.2339725  22.3029470  31.3962102  73.4080315  22.3834515
  40.6663942  12.4944723  37.2831964  40.2440929  11.8267596  37.8236198
  40.0380278  13.2161605  37.2596264  46.0082912  37.3579860  61.0115671
  45.5816078  38.0662584  60.5293655  46.7940044  37.1605420  60.5017567
  42.0818949 104.7589970  35.0734043  41.4937115 104.9017429  34.3318558
  42.7810431 104.2077541  34.7219038  36.1904550  45.4306269  40.2073145
  35.5425358  46.1351490  40.1983595  35.7166195  44.6738291  40.5522346
  47.4736929  29.0093231  24.3668866  47.9627752  29.4471788  23.6702394
  46.6371441  28.7779808  23.9632773  18.1422150   2.4517594  19.0120757
  17.5447023   2.6072866  18.2806230  18.7499344   3.1908399  18.9862204
  11.5184927  62.5722265  60.8471727  12.3607421  62.5971746  60.3930521
  11.7089474  62.9065943  61.7236185  35.1350808  28.5465837  49.9144697
  34.5469642  29.3011975  49.9445868  34.8607373  28.0599761  49.1371822
 103.7313175  14.6247411  54.0905619 104.0562916  15.0313580  54.8938608
 103.9709663  15.2394426  53.3970594  38.9619803  22.9408526  60.5696297
  39.2258430  23.1049585  59.6642685  38.0636597  22.6172352  60.5023861
  20.0528860   1.1868358   7.4692547  19.9816036   0.3094739   7.8452694
  20.7991266   1.5810582   7.9208559 107.7362919  36.7524147  46.0202456
 108.6015892  36.7232418  45.6120443 107.8579521  36.3290215  46.8700504
  87.5104809  91.1832142  66.3013840  87.9489994  91.0982513  65.4547882
  88.1450176  91.6380596  66.8552065  55.8659410  43.7574148  29.1731524
  55.4975033  43.1450653  29.8099518  55.4394197  43.5294294  28.3471203
   8.8700515 104.9362469  11.3262439   8.4874451 105.4412937  12.0437169
   9.5824182 105.4858971  10.9996712  27.6729417   8.5433018  15.0247324
  27.1585345   9.2948562  14.7301412  28.5385084   8.6796838  14.6394730
  20.7095265  34.6359682  90.9303856  20.0655413  35.3359652  90.8230495
  20.2233076  33.9252234  91.3483143  27.3325181  43.9065647  39.2346787
  27.5400209  44.8299170  39.3782020  28.0239224  43.5935593  38.6513972
  12.2163296  77.4976778  41.4231396  11.4046514  77.9988527  41.5020943
  12.1102774  76.9957924  40.6149960  59.9254942  13.5720682  41.0964298
  59.8271751  12.6211119  41.0490179  59.0383005  13.9108503  40.9766293
  43.4995413   6.1761796  49.3460321  42.6237202   6.5156460  49.5302391
  43.3844519   5.2268684  49.3036795   7.9381406  42.8412676  11.6797888
   7.6761776  41.9346333  11.8398583   7.1260071  43.2859278  11.4370000
  15.3153133   2.8870112  55.8180523  15.6307161   3.6841744  56.2438297
  14.9054790   3.1935963  55.0091839  23.3631110  24.0950561  15.2787209
  23.8095975  23.3969069  14.7996879  23.9016390  24.2332077  16.0579085
  40.6933165   8.2976609  65.7592535  41.2155437   8.7553746  65.1004601
  41.0860014   7.4263859  65.8131981  99.2514133 102.3886013  83.4920025
 100.0151825 102.1638107  84.0233803  98.5310936 101.8986607  83.8886356
  88.5058212 100.7437897  55.1530361  88.4521198  99.8581123  54.7939634
  88.2059956 101.3093472  54.4413614  34.7543502  40.5293703  46.4208746
  34.3967462  39.6887136  46.1351442  35.2976799  40.8199406  45.6883478
  33.7898993  10.2822614  28.0293846  33.0765843   9.7667640  28.4057808
  34.1143727   9.7484529  27.3041272  21.1473799  39.1004872  20.7123590
  20.4790759  38.4213924  20.8041906  21.9417787  38.7048006  21.0709620
  53.3345222  30.2824330  40.8581686  52.6350832  29.8385406  41.3377237
  52.8821564  30.7618403  40.1640749  51.1355019   3.2877472  72.5537252
  51.7584181   3.5324031  73.2380867  50.4529285   2.7998254  73.0144453
 107.4415779  24.0243101  36.9895720 108.3959579  23.9513803  36.9980741
 107.1917343  23.7940407  36.0947061  24.1038918  39.4994879  38.2182074
  24.0754962  38.8430905  37.5220990  24.7057366  40.1685667  37.8920937
 111.4671326  87.2608662  25.2977228 111.4100933  87.2861290  24.3425584
 111.2939644  86.3470364  25.5239177   3.8652793 104.6706867  29.1100955
   3.3503813 104.2533875  29.8007226   4.4957694 105.2176285  29.5786786
  42.6009750   9.2630291   6.5781087  43.2707787   8.7179029   6.9909400
  42.0642090   9.5756096   7.3064017  24.0488935  94.8529816  25.5746913
  23.1397581  95.1435089  25.6474662  24.1153789  94.1189289  26.1854172
  34.1662836  25.4012179   2.9805169  34.1943264  26.2568712   2.5523773
  34.0833068  24.7758055   2.2606516   7.5715119   2.7227873  37.2680855
   8.4235895   2.8845322  37.6730990   7.2028393   1.9947720  37.7683926
  73.7811995  49.3072939  86.6650009  74.3153858  48.5784101  86.9806194
  74.3967867  50.0350285  86.5773487  23.2177782 101.8865871  65.7402992
  24.0031266 102.3515129  65.4516792  22.5323629 102.1780205  65.1390505
  34.7848296  18.5953832  47.4618340  35.6768107  18.6693537  47.1225214
  34.5857549  17.6605284  47.4103689  18.7800145  10.5854905  32.9820442
  19.3794513  11.2828624  33.2477117  19.2958748  10.0392675  32.3889494
  41.6572428  37.8917909  11.4972103  42.0087337  37.0133018  11.6419137
  41.0741186  37.7954268  10.7442749   4.6302935  19.5104802  54.9602127
   4.0767983  18.7306678  54.9181700   5.1501626  19.4787800  54.1571140
 100.0872135  71.9875240  50.4686499 100.3630829  71.5341377  51.2652445
  99.8220062  72.8572702  50.7677174  38.0630040  36.3094115  52.0725298
  37.4389839  36.9603062  51.7513323  38.2978892  36.6147780  52.9487801
  27.4471402  31.3246131  73.9147949  27.3159313  31.6115117  74.8185158
  28.3960152  31.3488579  73.7911797  11.7382956  50.5404711  25.6450248
  12.6822162  50.3944016  25.5824995  11.3821673  50.1503372  24.8467755
 107.6380157 100.2381611  17.2930121 107.6783276  99.9518967  18.2055140
 108.5515499 100.2590179  17.0079517  42.1685505  27.9732752  20.1768231
  42.0027637  27.3329020  20.8686829  41.3000727  28.1891179  19.8371279
  66.1245394  28.6041617  46.0509348  66.5405846  29.2918754  45.5311394
  66.7720032  28.3857489  46.7212486  42.1510124  21.9054818  66.7157745
  42.5259209  21.8858814  67.5962782  42.0022726  20.9852719  66.4982462
  39.9271083  28.3667016  59.8370647  40.0760031  28.0260634  60.7191229
  40.2609396  27.6826739  59.2566395   1.2160376  20.2592278  55.5400562
   0.2714157  20.1046181  55.5359650   1.4929269  20.0268960  56.4263868
  87.6227856  99.5767689  32.6868176  86.9331074  99.0278625  33.0599999
  87.1601200 100.3387928  32.3382616  31.5098977   8.4989232  32.1423650
  32.3474908   8.3892167  31.6922188  31.7282987   8.9792943  32.9409742
  10.3721547  21.6743803  44.7979355  10.1144946  22.0936108  43.9769077
   9.8500437  22.1170211  45.4670429  39.3439460  98.0930901  46.4407492
  38.9624572  98.6162663  45.7357788  39.5880938  97.2679615  46.0214806
  35.2301955  60.9115267   7.7502429  35.4249287  60.5228710   6.8974483
  35.2166390  60.1691389   8.3543187  75.7975960  90.9967613  10.4416990
  74.9021864  90.6598282  10.4724646  75.7372046  91.8725395  10.8232749
 106.5328789 102.8157806  32.1711922 105.7615471 103.0916500  32.6663399
 106.4843464 101.8598270  32.1651769   4.9719256  30.5292416  65.0118017
   5.7672405  30.2373528  64.5662642   4.5237070  31.0770321  64.3673992
  16.0418940  75.0677013  28.2180548  15.1458263  75.3728485  28.3601069
  15.9772742  74.1131258  28.2470655  34.7948647  10.9722948  45.9769440
  35.4771018  10.4049087  46.3359070  34.0015888  10.7222068  46.4506531
  60.1902056  53.6926651  87.8075027  59.5501661  54.1557503  87.2670174
  60.7883120  54.3763828  88.1092167  32.7429390  94.0973568  50.6472397
  32.0538664  93.8517380  51.2645578  32.6405120  95.0427341  50.5376816
  93.2343197  78.1269503  26.8929482  93.6891460  77.6722860  27.6019192
  93.9329624  78.5443640  26.3890648  96.4377499  24.2609453  85.0134468
  95.9998703  24.9805665  85.4680252  95.9596252  23.4783077  85.2875137
  24.9733686  -0.0673353  38.4908104  24.9346447   0.8875907  38.4374356
  24.1551638  -0.3165800  38.9205217   2.7267179  30.5536723  71.4065790
   2.3236866  30.5350041  72.2745895   3.4042487  31.2266994  71.4715147
   9.6111447  17.4356341  60.1565599  10.2512836  18.1373525  60.2750778
   9.9689591  16.6988480  60.6518841 106.6767406  55.3582764  40.8060312
 107.1323109  56.0658169  41.2621832 106.8282223  55.5352640  39.8776150
  71.0107660  35.0294900  27.0736861  71.6004658  35.7358932  26.8100953
  70.1583195  35.2850199  26.7211699 101.5055847  97.3610687  49.0368509
 101.2022495  97.2664165  48.1339312 101.3019276  98.2683372  49.2640686
  46.2257290   5.6625724   9.5829517  46.6867208   6.0446501  10.3297687
  46.6270924   6.0741866   8.8176322  10.0648105  31.6633797  67.2584295
  10.7060456  31.0524464  66.8953705   9.8077619  32.2100806  66.5159512
  49.7316837  26.3568115  35.1207972  50.5657005  26.5640855  34.6992683
  49.1069937  26.2947798  34.3982005  16.4922285  72.4540472  37.0371389
  16.3950753  72.7407360  37.9452157  17.3338711  71.9985008  37.0185375
  13.1342757  56.3079977  46.6689825  13.3480406  56.1568308  47.5896835
  12.2212493  56.0325909  46.5867424  20.5335188  20.9827447  48.3197117
  20.7233381  20.1112270  47.9723501  20.9187126  21.5838313  47.6820946
   0.1303751 102.1319103  40.9752655   0.6452638 102.0179939  41.7741108
  -0.5552118 101.4666271  41.0352898  16.8419921  19.8383129  39.5482016
  15.9528518  19.5189595  39.7020650  17.3170996  19.0750861  39.2195845
  18.1535697  96.3175201  41.9556379  19.0239775  96.1430454  42.3136616
  17.8345764  95.4604053  41.6731119   4.9890941  94.8175907   2.0546842
   5.1048559  94.4493484   1.1787664   4.0424562  94.9264622   2.1455443
  84.3542862  95.4743195  29.8650980  83.6314487  94.9755764  29.4843221
  84.8237896  94.8399925  30.4067779 100.4203606 103.7880135  20.5844641
  99.6142197 103.4974098  21.0109830 100.1414204 104.4928741  20.0000000
 106.1969757 104.7308922  54.8908424 105.2678967 104.8502159  54.6938610
 106.6252136 105.4897118  54.4945765  10.7352412  43.5764074  47.6622677
   9.8540914  43.7073565  48.0124903  10.6823027  43.8868904  46.7583704
  37.1182513  42.6162863  50.8615828  36.5229702  42.1304703  50.2907467
  37.6725197  43.1146622  50.2610540 105.1175976  35.4010153  48.1369114
 105.7153702  34.9826884  47.5173187 105.2757072  34.9481392  48.9652443
  30.9296227  92.8061676  37.7787042  31.5943527  92.8424931  37.0909214
  30.1234126  92.5691986  37.3203325  16.5767002  33.2491088  61.4576626
  16.2882888  32.3432755  61.3457823  17.4721301  33.2588696  61.1195183
  43.3262014  33.0773139  30.5096984  44.1047287  32.5651073  30.2911401
  42.8225422  32.5102139  31.0936165  33.2602167  16.4279759  45.1075840
  32.3080850  16.3459349  45.0532818  33.4763360  16.1295259  45.9910154
   4.3225524  96.2324715  40.2704096   4.8487586  96.9786167  39.9829912
   3.6280692  96.1626720  39.6153903  52.4704742  29.2316365  66.3044024
  51.6097069  29.1898036  66.7210102  53.0850840  29.3201733  67.0328569
   2.5216848  19.0439165  49.2538023   2.8408888  19.9456894  49.2876673
   2.9955658  18.6494374  48.5216475 103.5466766 105.6854153  45.8779526
 102.7003384 105.4699326  45.4861355 104.0117264 104.8497486  45.9181166
  15.0493884   0.1790656  82.6570034  15.9949517   0.1399146  82.8005695
  14.6877897   0.4244198  83.5086441  33.4438109  16.0675073  47.9627943
  32.7243137  16.3147843  48.5436678  33.1020641  15.3285885  47.4593687
  12.7969444  30.9780359  50.3714466  11.8756831  30.8379889  50.5902958
  13.0290389  30.2294755  49.8218775 112.5878239  48.4625292   6.8807518
 112.6849461  49.1966391   6.2742192 111.7630100  48.6346102   7.3349500
  44.2838478   7.3064560  88.8672924  45.0551701   7.0822388  88.3466911
  44.2026758   8.2560587  88.7784195  17.9463232   0.4577547  82.9945755
  18.6860466  -0.1337050  83.1331921  17.8949428   0.9702151  83.8014030
  46.9598913  36.3005114  66.2363720  47.1855593  37.1205902  66.6754341
  46.2244225  35.9531569  66.7410088  41.3134336  29.3406892  12.8880179
  41.8305826  30.1461530  12.8918397  40.8975077  29.3271947  12.0260119
  25.0057864   9.7706985  84.6422482  24.3752527   9.9648118  85.3357697
  25.5376601  10.5635369  84.5733261 109.2469978  10.7052970   6.5351266
 109.0970230  11.2034941   7.3385805 109.4061375  11.3714445   5.8664304
  39.2261767  13.7581527  56.2500525  39.4313669  13.8592303  55.3205824
  38.3614588  14.1564977  56.3491344  79.2701864  90.6657505  21.3928127
  78.3744860  90.5624962  21.7141986  79.5302629  91.5393829  21.6849804
 111.8052769  26.7496920  20.9092951 112.0329762  26.1629391  20.1881099
 112.2972488  26.4116240  21.6575646  48.8833618  46.6628933  23.5013247
  48.7061501  45.7224274  23.5201097  48.6509752  46.9679737  24.3783402
  57.2618055  15.8058262  61.9855499  57.0378113  16.4049101  62.6976967
  56.7766523  15.0050652  62.1846485  59.6748352  27.2301435  54.9471426
  59.8200703  26.5249586  54.3163872  60.1304913  27.9840493  54.5726585
  31.5630078  14.3856883  55.4706669  32.1278906  15.0579262  55.8517599
  30.7021785  14.5496762  55.8557796 108.4454155  76.5031719  38.1073856
 107.9209709  75.8006382  37.7231669 108.9404678  76.8625736  37.3711896
  40.5993176  23.6187649  64.9803734  41.1250257  23.3599567  64.2234850
  40.9990788  23.1584811  65.7183170  14.8413944   6.8314987  69.6522188
  15.6234837   6.2856680  69.7336912  14.9868202   7.3408949  68.8549757
  38.1995797  32.6484442   4.9458030  37.2967052  32.9638696   4.9852276
  38.4597921  32.5519419   5.8618867   6.3880688  13.0467665  60.5677080
   6.6799605  12.3063588  61.0995245   7.1968693  13.4387636  60.2384472
  25.8815551   3.4896538  49.4115496  26.0686111   3.2367977  50.3155994
  25.4848123   2.7104473  49.0221071  57.9502201  16.9634235  52.5538683
  58.0533552  16.7054152  53.4698534  57.0827532  16.6403377  52.3102474
  99.5017910 100.0255299  71.0503769  98.9562225  99.9465084  71.8328953
 100.1640415 100.6756973  71.2847757  46.1441708   6.7644465   1.6102791
  46.7505360   6.8181062   0.8715833  46.1499786   7.6434094   1.9892550
 100.3991032   9.0932977  86.2274933 100.6610107   8.6695808  87.0448685
  99.4510460   9.1994721  86.3058376  32.2603130   4.4904378  80.3892040
  31.8652058   4.6156406  81.2520218  31.6656208   4.9367565  79.7864056
 112.2019958   8.9347184  46.7810106 111.9954300   8.0658096  46.4366817
 111.3492584   9.3491632  46.9125414  98.7542534  21.6825485  76.2221956
  99.5018959  21.1003613  76.3575697  98.0331707  21.0967469  75.9917402
  17.3009467  32.7314830  27.8419471  17.1737814  32.3100758  26.9919634
  16.5334606  33.2936168  27.9477978   7.7089095  70.5180359  37.2440600
   7.4400890  70.3534365  36.3402486   6.8979251  70.7495165  37.6967740
   2.3534368  16.1037743  71.0809135   1.9335142  15.5586135  71.7462683
   3.1685984  16.3950360  71.4894629  25.0126481  36.3127708  32.7086377
  25.4284644  36.7911911  33.4258842  24.3986630  35.7191443  33.1409121
   4.2315102 100.4614258  13.5428250   3.5844734  99.8048973  13.2848489
   3.7156725 101.1625195  13.9410841  24.8243523  45.3817892  42.1804667
  24.6513796  46.1151552  41.5901375  25.0670099  45.7938623  43.0096483
 110.3950787   6.4072233  70.1432276 111.0076427   6.7291963  69.4819212
 109.8494434   5.7743406  69.6763468  37.6841402  57.3473644  53.0002117
  37.1767735  57.7928019  52.3216867  37.3120117  57.6631355  53.8236475
  58.7871027   4.6858600  17.1196496  59.0429688   4.7303501  16.1983538
  58.5198927   3.7760529  17.2503507  10.0495756  54.7348070  67.1898842
  10.4780495  55.3620958  67.7722454   9.4850153  55.2714491  66.6335392
 110.8905602  99.2007446  22.9264593 111.4393139  99.0123940  22.1651268
 110.2745819  98.4690666  22.9646134  50.6799841  76.6265440  47.2098160
  50.5574894  77.1086311  48.0276299  51.4089346  76.0325527  47.3888111
  36.7267036  30.9085321  21.8425560  36.7933440  30.9353614  22.7970576
  36.8979144  29.9943995  21.6161084   0.9446353  45.2667856  49.7655821
   0.7832190  44.4375181  49.3155909   0.2309968  45.8371735  49.4799089
  34.7881007  18.7879670  26.3318253  35.3633952  19.4526911  26.7105198
  34.8231268  18.9498484  25.3890657  92.5914669  10.1185286  35.8994699
  91.9133282   9.4923168  35.6460452  92.8680611  10.5187249  35.0751090
  24.3553495   8.6146134  56.8535614  23.6284542   9.1786963  56.5896177
  23.9354467   7.8618628  57.2698307  80.2274799  87.6846027  23.1913710
  79.4449139  87.8144169  22.6556706  80.6823635  86.9513130  22.7771354
  25.3930044  29.4760013  22.0762992  26.2336469  29.6315312  21.6457582
  25.6163144  29.3464947  22.9980326  24.8807383  57.7587223  26.5317583
  24.9387360  58.4114790  27.2294545  25.4505658  58.0957842  25.8404422
  35.7533169  18.6396229  54.0611172  35.6015205  18.3263481  53.1694651
  34.9926162  18.3338690  54.5551634  51.4733028   6.0621715  46.1472607
  51.6429996   5.4034245  45.4738426  51.1535740   6.8232107  45.6626701
  21.9703579  21.7770219  30.3530431  22.9247570  21.7623758  30.4247522
  21.7681503  22.6536965  30.0262642  97.3778343   4.3137267  50.9329271
  97.9373550   3.5440552  51.0367012  97.2971630   4.6721250  51.8168259
  90.0422287 103.9382935  28.5709596  89.8281384 103.2615757  29.2131805
  90.5178356 104.6014118  29.0712643  50.0018930  38.2958603  61.2278366
  49.4499826  37.7476501  60.6700850  50.8649206  38.2652879  60.8149385
  34.0772009  22.2236347  31.8804765  33.4823012  22.0040441  32.5974894
  34.8949909  21.7787290  32.1029902  17.3255622 100.3107262  18.6446822
  16.4726436 100.5835152  18.9828372  17.5562871  99.5431042  19.1678941
  44.5169306   3.3417070  17.8147650  44.3586731   2.4420807  18.1008756
  45.4137087   3.3323893  17.4802017  61.0519171  26.5098643  57.0845556
  61.9684410  26.5272117  56.8090296  60.5554152  26.5889812  56.2700272
  20.9893107  18.0364418  56.8184233  21.1684966  18.7607765  57.4179745
  20.1186347  17.7277684  57.0691681  17.6465881   8.4765542  20.0059056
  16.7761707   8.3653426  19.6234941  18.0755091   9.1201615  19.4419646
 102.0502377  91.1881351  82.9783249 102.9317284  90.9230995  83.2409191
 101.5229893  91.0844421  83.7704659  26.5759373  15.7178736  45.0404835
  27.2133088  15.0824082  44.7146416  26.4420509  16.3197720  44.3083429
  42.4252510  25.3264832  71.3921881  42.0996761  24.4765759  71.0957289
  43.3082676  25.1455927  71.7143631  34.3584132   9.0792102  33.4415460
  34.2695475   8.7667447  32.5411558  35.2089000   8.7461185  33.7278223
   7.5488722  44.7293186  32.7510309   7.8585100  44.6137381  33.6493611
   6.7189664  45.1975012  32.8421140  19.4149697  12.2757649  39.1281390
  19.6010029  11.5832794  39.7622418  18.5099316  12.1177220  38.8595152
  79.4279957  89.9616146  53.5513353  78.6429644  90.4007626  53.8785934
  79.6503830  90.4346561  52.7494621  50.5814266  17.6835847  24.2982459
  51.1317635  16.9103241  24.4224572  51.2015057  18.3976233  24.1503143
   2.1772689  22.2469854  41.4216328   2.8985584  21.6248751  41.5162516
   1.8275414  22.0769954  40.5469751  15.9922874  17.4224508  56.1382294
  16.9038236  17.1357262  56.0823631  15.6930447  17.4477923  55.2293587
 111.7010807  20.9185147  77.5295973 112.0720248  21.7189622  77.1582270
 112.2365045  20.7429719  78.3033800  15.2533531  21.1585832  67.1915674
  15.5436766  21.3268709  68.0880165  14.6429861  21.8705678  66.9998360
  14.1448760  38.2081366  40.2509212  14.6775067  38.4743023  41.0003853
  13.9483333  39.0260768  39.7942185   2.9891366  82.4770355  39.5514297
   2.0792913  82.7514458  39.6659303   3.5018176  83.2634830  39.7382164
 103.8020420  18.6380351  43.4930277 103.0959511  19.1150165  43.9290953
 103.3562851  17.9528832  42.9949331  34.6059966 105.7174110  21.5047455
  34.1929793 104.8565388  21.4373207  34.9339056 105.7560349  22.4031973
  50.1728249  30.5478525  26.8423486  50.4266834  31.1416173  27.5489116
  50.9466124  30.0033379  26.6974521  13.8915741  56.8655872  34.3808198
  14.4451153  56.5621614  33.6612678  13.1041849  56.3245010  34.3218780
  44.4763756  41.1307907  58.1486893  44.7351694  42.0121527  58.4178734
  43.7946987  41.2715149  57.4916124  35.2909660  20.0480914  49.9131870
  35.7628202  20.4871225  49.2054892  34.9631405  19.2404819  49.5175505
  19.6288621  43.8925457  51.9094992  18.7366438  44.1414356  51.6681910
  19.5432758  43.0069971  52.2626448  30.0297189  18.4216404  22.2081351
  29.5637321  18.9074051  22.8886676  29.8799419  17.5015473  22.4254584
  30.5523968  31.0705113  36.9488573  31.0358286  31.8012357  36.5634131
  31.2248659  30.4222631  37.1581268 104.5536137  82.4153519  30.5069089
 104.7820568  82.4564743  29.5782781 104.9317455  83.2106781  30.8820271
  92.9638195  98.0082035  24.8243475  92.7994537  98.1960487  23.9002657
  92.0965576  97.8387165  25.1922560  29.8796535  12.0245779  65.7942486
  30.5454826  11.9451725  66.4773273  30.1978421  12.7296257  65.2304268
  30.5450916   6.1702222  22.0326567  31.3164139   5.9265614  22.5444436
  29.8218489   5.7052755  22.4533439  33.9033985  70.8408976  52.2089815
  34.4560051  70.3799391  51.5778112  33.1278992  70.2868843  52.2978497
  20.2488256  37.3735356  22.6183796  21.1172366  37.4160528  23.0187392
  19.8685133  36.5629196  22.9567575 112.6146107  79.1791344  54.0402746
 112.3537248  79.4314432  54.9259996 112.5552834  79.9888802  53.5332966
  49.6850061  18.4930384  86.9084930  50.5777025  18.2104695  87.1071720
  49.6660995  19.4178188  87.1547794  62.6492214  46.4712048  26.4743519
  63.2165146  46.3517666  25.7126760  61.8588161  46.8806553  26.1224532
  26.1984086  31.1507201  66.6870070  26.2434959  30.7170510  65.8348751
  26.5673018  32.0204401  66.5329504  82.6727390  16.3877392  29.2042542
  82.6406956  15.8151436  29.9706340  82.4077320  17.2459197  29.5352101
  43.9174366  68.2834721  63.1189871  44.0247297  68.8094425  63.9114952
  44.8091698  68.0396509  62.8707933  17.4425852  33.3310318  38.8115764
  17.2242570  33.9131927  38.0838013  18.3803988  33.1663394  38.7135124
  47.1735907   1.1220546  33.2802248  47.2378302   1.9707605  33.7181807
  46.5365267   1.2616867  32.5795960  11.1578012  71.4722538  31.5593481
  10.4343152  71.0223198  31.1230469  11.5663040  70.7982159  32.1025157
  27.8368473  21.9581413  54.0752125  28.1023598  22.5785255  53.3963442
  27.0132184  21.5904570  53.7547874  24.4654465  42.5475883  14.0628040
  25.0672483  42.3822165  14.7885585  24.5074749  43.4942865  13.9277744
   1.4724799  39.9526072  49.0344715   0.8611081  39.2643404  49.2966604
   1.6874254  39.7480965  48.1244135  35.7029629  30.9386945  32.3266506
  35.8671904  31.8683195  32.1683502  35.9410906  30.5100274  31.5045977
  44.0362072  29.0557218  31.9866419  44.3501377  29.4703674  31.1830568
  44.0650225  28.1175184  31.7990899  63.6682653  42.2960758  33.2564521
  64.3861246  41.7417955  33.5625291  63.1071186  42.4067831  34.0239763
   2.5705996  41.8324709  46.9844437   1.9795896  42.0408916  46.2609100
   3.0522746  41.0611391  46.6856670  51.2909222  23.1110120  63.0649233
  51.2717962  24.0060401  63.4037304  51.7184353  22.6030016  63.7544107
  26.0816884  54.8328066  80.7806396  26.1637020  53.9365816  81.1066532
  25.9777713  55.3658390  81.5688705  39.6965575  25.6834173  38.3978009
  39.2232680  25.9756041  39.1768098  40.5987692  25.5666089  38.6954594
  41.8585491  28.2728338  56.4121151  41.6345930  29.0668011  56.8975973
  41.1857271  28.2087541  55.7343006  19.5733964  27.5971413  26.9228482
  19.1860294  28.1212568  27.6239061  19.4112694  26.6906285  27.1839595
  26.2645555  29.8355627  54.2705965  26.1224699  29.8745275  53.3248043
  26.1541486  28.9107633  54.4914818   5.0328624  44.6732998  20.8251762
   4.1571093  44.3794966  20.5742431   5.6011891  43.9290905  20.6267118
  22.0569253  25.0556350   0.5825515  21.6831541  24.8828459  -0.2815505
  22.7286482  25.7190275   0.4246584  41.8772650  20.4227471  49.7953033
  42.6775360  20.9117746  49.6038628  42.0574474  19.5364153  49.4819593
  18.1668580  69.2879772  53.2509947  17.9423320  70.1276398  52.8500175
  17.3791957  68.7542725  53.1462002  67.7088356  11.0685778  48.7855864
  68.4535074  10.4771304  48.8945866  68.0501270  11.9301128  49.0253925
  93.8723946   7.1149480  20.9543800  93.5132599   6.8737388  21.8082404
  94.7470570   6.7262435  20.9439516  18.8953471  11.8016624  62.6204252
  18.8676560  11.3288927  61.7885828  18.2850468  11.3279736  63.1855631
  31.4886189   4.3022290  54.6773767  31.5406418   4.7512379  53.8336277
  32.3840976   4.0110740  54.8493671  47.8512335  22.2255015  32.3673940
  47.4255657  21.7216110  33.0610299  48.2848501  21.5670156  31.8246174
  13.0904186  64.0814924  28.4449005  13.5259962  64.9175549  28.6107278
  12.8515542  63.7593365  29.3140340  10.5997550 101.6135406  45.9225750
   9.6647036 101.5208626  46.1051178  10.7845378 102.5389290  46.0830116
  63.2467890  14.1074634  57.9747200  63.7175083  14.1656983  58.8061476
  63.0863667  15.0177670  57.7260399   4.3285185 104.8766232  67.0770216
   4.6759593 104.0535641  67.4206781   3.4076443 104.8754978  67.3382139
  83.9185143  78.8367844  90.8532906  83.6725426  78.5450983  91.7311573
  83.4623528  78.2355213  90.2645397  19.2436242  55.8293724  46.5860987
  18.8091838  55.4978657  47.3719740  18.6416852  55.6180763  45.8724785
  14.7671020  31.6886854  14.6276009  14.5060253  32.6064301  14.5513570
  15.5412602  31.6127634  14.0697956  21.7418599  45.9716749  37.7723885
  22.6307678  46.3246012  37.8113174  21.2572122  46.4701748  38.4302998
  34.8523545  35.3154993  39.4465876  35.3216481  34.5127654  39.6737790
  35.1414371  35.9544754  40.0980234  36.7830396   6.0572028  37.8052855
  35.8478618   5.8788991  37.7058673  36.9184065   6.1053479  38.7516427
  38.5365868  41.0975647  67.6798820  38.8256884  40.4774189  68.3492661
  38.3754730  40.5572271  66.9063807  96.6606331  14.1961980  33.5003948
  96.8107796  15.0736296  33.8522506  96.4379978  13.6661196  34.2656970
  25.7842207  51.7142916  30.7276726  25.3704238  51.3158369  31.4933348
  26.3917351  52.3582268  31.0916805  29.2897081  99.4231224  50.9284496
  28.9224958  98.6254978  50.5474234  29.3371010  99.2404461  51.8668604
   8.0199206  55.0866318  39.4749594   7.6190966  54.2455721  39.6944785
   7.7879781  55.6603527  40.2052212  16.6021001  97.4131203  54.5871735
  16.9089615  98.0506992  55.2318239  15.7546067  97.7524567  54.2993546
  28.2446313  50.0249290   8.7793988  28.3398056  50.3107738   7.8708476
  28.6826706  50.7047176   9.2914939  25.9471607  24.2215753  72.0365238
  25.4983830  23.4621859  72.4082232  26.8771076  24.0023851  72.0947075
  33.6074448  69.1704035  63.1968784  33.0416870  68.4000778  63.2493353
  33.0339932  69.8674965  62.8783703  57.6790762  56.6880417  15.4810143
  57.5234175  55.7728767  15.7144165  57.4552250  57.1783686  16.2720275
   6.1833268  34.6575308  76.1208391   6.2397629  34.3113327  75.2302265
   6.5088391  35.5548954  76.0500622  86.2328146 105.9015291  43.7047815
  86.1092756 106.1186587  44.6288061  86.5109251 104.9856320  43.7090683
  53.6460018   1.3911206  53.4576845  53.2240582   0.6845697  53.9465427
  54.4440889   0.9960976  53.1066275  95.5203915  61.5045166  32.8823185
  95.7838917  61.2368584  32.0018888  95.5868149  62.4593544  32.8723145
  17.0759058  39.7247243  21.5709162  17.5262630  40.5526543  21.4037514
  16.1526346  39.9654698  21.6473579  65.6963778  27.1350789  58.3883953
  65.2184153  27.1271777  57.5591040  65.7291460  28.0588078  58.6371613
  32.4392462  23.6508679  55.0143147  32.5085640  23.8848138  54.0887356
  33.2393765  23.9971256  55.4094505  26.9869876  52.0036173  59.9579477
  27.8138399  51.5344238  59.8465538  27.1314049  52.8481007  59.5310736
  25.2033329  29.9335957  39.9606442  25.6878042  30.5185318  40.5431986
  24.4781303  30.4667115  39.6349072  19.5557380  17.0341134  59.9059248
  18.6772990  16.8953538  59.5519161  19.6488774  16.3654745  60.5845118
  31.7833853  29.2610121  69.4459820  31.0999084  29.0079212  70.0664949
  31.9713950  30.1756191  69.6566391  23.2811642  41.6417313  59.3021297
  23.7441492  41.9185877  60.0928450  22.3544478  41.7427492  59.5194340
   7.8534293   1.6228634  19.5127785   8.6067116   1.2611856  19.0458870
   7.3447651   2.0702896  18.8365364  47.7960920   9.6619147  43.8793993
  48.1609726  10.5348122  43.7339878  47.6363802   9.3195230  42.9999161
   4.1516742  19.0336895  34.3758488   4.1435856  19.9516177  34.6470976
   4.2959496  18.5456419  35.1865435  14.5142603  44.8809290  13.5321403
  14.0828419  45.5441093  14.0709352  14.4835067  45.2367353  12.6440597
   0.9562284  46.0712957  32.6879954   1.1255915  45.5172825  31.9260120
   0.0098974  46.2144995  32.6744103  42.3737907  21.1716676  21.1696076
  42.4073744  22.1040606  21.3834882  41.4853287  21.0330486  20.8415008
   8.9361829  57.3118305  24.5784569   9.7518086  57.7575922  24.3498039
   8.7985075  56.6850948  23.8681912 101.9167614  21.2113619  45.9933710
 102.6217461  21.8288851  45.7986879 101.2811852  21.3439512  45.2900267
  36.1997890  37.6577687  44.1423082  37.0562530  37.2326398  44.1866779
  36.3938642  38.5624361  43.8970757  91.7044735   1.6598684  42.0197630
  91.9322395   0.8959582  42.5496626  91.3860607   1.2929425  41.1950111
   9.8060042  21.9616771  61.8834496   9.8663849  22.8925467  61.6688156
   8.8854122  21.8269706  62.1083879  13.0784798  21.0379124  45.7882261
  13.0802405  21.3033295  46.7078876  12.2094154  21.2823176  45.4700661
  72.2615004  24.7853708   2.3223704  73.1698895  25.0733876   2.2322953
  72.1340609  24.6863818   3.2658702  44.3248081  23.9432812  81.2553120
  45.0528526  24.4300318  80.8689785  44.6576881  23.0510402  81.3519001
  77.6672220  69.6550798   8.7246221  77.3917007  69.9536467   9.5913279
  78.3877659  69.0492487   8.8978583  45.1870155   7.0000732  47.3609304
  44.6254301   6.9552469  48.1347799  45.9800148   6.5268117  47.6127386
  31.1852789  14.0447402  38.0482602  31.0114193  13.8842559  37.1207643
  31.6013098  13.2397628  38.3567429  74.0569544  18.2004488  29.7815347
  74.5087481  18.3706784  28.9550138  74.0526199  19.0457404  30.2306390
  52.2393608  77.1195984  57.3422384  52.3109007  76.5915680  58.1374121
  52.4719191  76.5189648  56.6341543  46.6097164  45.8134460  71.5350151
  46.4606380  46.2214184  70.6820393  47.3493433  45.2228928  71.3920641
  39.4649339  51.9231367  49.3390703  38.8435292  51.1979675  49.4040012
  40.0390387  51.6822338  48.6120224  46.7616558  50.4038715  52.8272343
  47.2373581  49.6216249  53.1065845  46.8272305  50.3958178  51.8723202
 104.4439125  59.1180611  55.0178719 104.3216133  58.2410908  55.3814602
 104.9162674  58.9736843  54.1979551  46.4259243  69.9075270  44.5027685
  46.6928244  69.3770123  43.7520695  46.8947649  70.7344532  44.3904734
  27.0977616  40.5025578  66.9696236  26.6801238  39.6979880  66.6622496
  27.4246168  40.2843952  67.8424358  34.1874576  25.7037759  56.2557125
  34.8721147  25.2851081  56.7774343  34.6182346  25.9279084  55.4308319
  62.5527430  31.9663739  84.4048977  61.6012430  32.0266461  84.4899940
  62.7946997  32.7274394  83.8771915  29.4174886  73.5927248  61.9177437
  29.4021678  72.6452827  61.7822886  29.3831849  73.6993408  62.8683710
  59.5703554  20.1175737  87.1864700  60.2179384  20.7065558  87.5737286
  59.4730377  19.4136620  87.8277683  32.4558759  28.8086295  32.9734588
  32.6224256  29.1893911  32.1111870  32.8895593  29.4031143  33.5856175
  47.0201969  62.8585911  40.4758596  46.8176174  62.1685410  39.8441720
  46.4982891  62.6378536  41.2472963 110.0841999  12.8723514  11.7449880
 110.9116840  12.4105680  11.8801212 109.6088982  12.3323393  11.1135530
  25.5154109  63.2294989  31.9183993  24.8204231  62.8303576  32.4417639
  25.1963377  63.1780624  31.0174131  43.2912874  56.0811090  31.0961318
  42.4664974  55.9805107  30.6209064  43.2748699  55.3861570  31.7541623
  41.0656691  47.6745129  27.6407075  40.6336927  47.5606108  26.7941546
  41.4409542  46.8157768  27.8355646  79.5055342  20.6874347  42.9366446
  79.5588636  19.9338663  43.5244560  80.4172325  20.9030104  42.7402687
  43.9318705  21.3647842  12.7093041  43.4530020  21.8646383  12.0481944
  43.2534695  21.0372639  13.2998431  58.9194012  22.3872447  61.1959648
  58.1756973  22.9896855  61.2103796  59.6780014  22.9385829  61.3877583
  51.2768269  10.0830829  59.4937420  51.6231585   9.1945153  59.5758009
  50.3266239   9.9743402  59.5327711  11.2042236  62.1092510  39.5959258
  11.6445994  62.1115780  38.7460470  11.2541449  61.1994076  39.8890567
  39.0807772  48.2323599  54.0438318  39.2284346  47.4273920  53.5473919
  39.6868920  48.1729269  54.7822952  37.2055387  14.4550502  48.5764217
  37.3300862  13.6850810  49.1312790  36.8671727  14.1043711  47.7525473
  12.5236106  37.8648615  51.4535189  13.4714735  37.7538395  51.3796091
  12.3336530  37.6939845  52.3759842  16.8587005  49.4209099  24.4244289
  17.5030589  49.2166710  25.1021576  17.2797239  49.1569662  23.6063170
  35.6024790  54.6408033  63.6762810  35.9856868  55.0974417  62.9273748
  34.7489238  55.0562763  63.7989855  30.6787515  63.2137632  35.6625462
  31.4941716  63.4410429  35.2157092  30.4623222  62.3402643  35.3363729
  37.1675038  38.9024997  58.8929701  38.0795383  38.7107491  58.6746645
  37.0863461  39.8486781  58.7730122  53.7271166  16.1550140  16.0188448
  54.6018267  16.4599216  16.2599921  53.3325815  16.8971777  15.5608463
  32.4362397  34.3802929  44.1223907  33.3933187  34.3883777  44.1094065
  32.2007394  35.0043821  44.8088932  22.1452928  36.7038369  13.6746359
  23.0574989  36.4394283  13.5554743  21.6979551  35.9035897  13.9498198
   7.3379618  23.4144807  49.1197538   6.8459564  23.8053966  48.3977079
   7.3093396  24.0733671  49.8134947  69.3954229  10.3174949  63.1279659
  68.7695312  11.0143363  63.3251953  68.9656353   9.5171219  63.4294844
   8.4798580  51.7674875  15.0113463   8.4435576  50.9427118  14.5269287
   9.4104993  51.8973637  15.1937473  29.4387484  45.8290720  25.2040529
  29.7653985  45.4396057  26.0151315  29.2544413  46.7400169  25.4330397
  17.6437390  45.0838518  21.6129827  18.4693503  44.9919987  21.1374211
  17.1516430  45.7363892  21.1147118   0.7096386  21.7242885  17.1685100
   0.6458417  22.6393652  17.4420047  -0.1990864  21.4357138  17.0838022
  42.1489954  30.8441544  19.8855639  42.5284719  29.9803519  20.0470352
  41.5571928  30.7111597  19.1450822  37.5254059  34.2533541  15.7269061
  36.7819762  34.8138499  15.9491384  37.4775767  34.1580439  14.7756648
  54.7904921  19.0240836  73.9032698  54.3591213  18.7599838  74.7159195
  55.5811644  18.4858716  73.8659477  53.4384584  26.6433024  56.7941618
  52.4827147  26.6044164  56.7583942  53.6443138  27.5726080  56.6929293
   4.5725772  34.6593523  26.7748380   5.3465414  34.5077109  26.2324190
   4.7819772  35.4475737  27.2759295   5.1238126 105.8481026  35.6779385
   4.7801143 105.1298523  35.1466894   4.5480517 105.8776474  36.4420462
  59.7892857  30.9099269  71.3988972  59.9761391  31.5133739  72.1180391
  59.2129612  31.4036632  70.8155394  33.5460997   5.2220273  14.9037170
  33.5947609   4.6207890  14.1604960  33.0248761   4.7544265  15.5563319
  83.6623001  23.3872056  61.4856148  84.3109226  23.5936570  62.1585846
  83.3363724  24.2398500  61.1975098  24.4071889  38.4945273  49.4762564
  24.0044832  38.6975622  50.3205538  23.6676383  38.3239293  48.8929987
  47.0391798  49.7498465  38.7412429  46.7565441  50.4574728  38.1619215
  46.8172741  50.0568867  39.6202850  22.3621821  16.0521793  11.6739357
  21.8506289  15.7114911  12.4077463  22.1458769  15.4740846  10.9423280
  57.0072937   9.8770803  46.8270922  56.2246704  10.4231286  46.9016695
  57.7358294  10.4971707  46.8580437  63.5194969  22.0388651  67.3794174
  64.3974924  21.9659591  67.7536345  63.1133652  22.7601027  67.8601551
  16.8801653  57.0268154  26.6025305  17.3578620  56.1974287  26.6149998
  16.3134313  56.9652557  25.8335972  15.6378460   2.5805375  89.8096752
  14.8574269   3.1284505  89.8931599  15.7734799   2.4991387  88.8656330
  36.8211269  31.0565472  44.7622108  36.4104176  31.9099021  44.9012613
  36.6224051  30.5626249  45.5576849  23.1405585 106.1161501  66.1708021
  22.6597111 106.6797133  66.7769480  23.4221976 105.3741285  66.7058897
  29.9798203  57.5737238  32.5989628  29.8968077  56.6437864  32.3878694
  29.0982842  57.8395557  32.8606081  48.0070925  36.3916349  54.7342634
  47.9952049  36.5406466  53.7888098  48.0682945  35.4408193  54.8261261
  47.3516369  67.4593306  51.9542980  47.8503466  67.5273609  51.1401176
  47.8692865  66.8708324  52.5037861   3.2065505  26.1597705  25.9873676
   2.5566113  26.0101628  26.6739750   4.0450263  25.9599781  26.4036274
  12.1778476  53.9338207  52.5767136  11.6504455  53.7743235  51.7939997
  12.4727774  54.8399448  52.4862432  72.5940752  78.6035538  82.2924900
  71.7231560  78.9430475  82.0864105  72.8275776  79.0282965  83.1178951
  53.6460924  24.0453649  57.0598793  53.7579155  24.9932218  56.9871235
  53.9738512  23.7010503  56.2290668  26.9289994  24.2453408  48.0516052
  27.4953532  23.6088848  47.6152611  26.4664054  23.7371159  48.7178993
  58.5986900  31.2233281  41.9495773  58.5608196  31.5943289  42.8311443
  57.6934147  30.9835625  41.7515326  38.7812185  78.7661600  51.9404602
  37.9276252  79.0787649  51.6406488  39.3448377  79.5390749  51.9063568
  65.1049328   9.7286624  13.5982347  64.4083691   9.5379174  12.9700208
  64.7330618   9.4910640  14.4476426  38.6301732   8.8634092  57.6044226
  39.3696737   8.2660264  57.7162504  39.0294981   9.7317833  57.5524759
  99.4926739  49.3571949  43.2687616  98.6231041  49.7569418  43.2520819
  99.7427845  49.2892838  42.3473167  64.8429966  24.7821021  37.9408455
  64.5662308  25.4368329  37.2997856  65.6918144  24.4770217  37.6204252
  62.7507544  36.3574266  20.1869678  62.4028826  36.3080549  21.0773468
  63.7010717  36.3660979  20.3012514  61.5703678  26.6628027  71.3134432
  62.3025656  27.1423149  71.7009783  61.0319185  27.3390794  70.9024048
  42.1042299  18.0304253  48.4894371  41.5765095  17.7182162  47.7544069
  42.8644419  17.4489319  48.5025358  56.9292974  33.2006931  11.8781555
  56.9425535  33.8500237  12.5813103  56.7439222  33.7075090  11.0875821
  13.2780695   2.5392562  17.1513247  12.3986256   2.2013845  17.3205972
  13.1723619   3.4905899  17.1466208  17.2307241  39.6303368   8.6202163
  17.7991712  38.8947964   8.8484305  17.8097010  40.2531147   8.1807101
   7.7711898  38.1650639  52.5539160   7.4007940  37.4399710  53.0571842
   7.0125991  38.5936999  52.1576309  23.7603927  34.7981381  36.9761920
  23.0048871  35.3781176  36.8809652  23.5007691  34.1762638  37.6559711
  63.0365944  11.0406840  73.0126667  62.4901152  10.4291773  73.5062790
  62.7541876  11.9063056  73.3079290   7.3581821  98.7329197  73.0553675
   6.6009408  99.0557575  73.5438347   7.4845153  99.3754482  72.3572111
  38.2266188  16.4154232  41.3228035  37.6300859  17.1575820  41.2249374
  38.7738228  16.6453731  42.0737553  37.4226594  12.1072936  50.1359606
  36.9658899  12.5374687  50.8588314  37.3613381  11.1732221  50.3359127
  70.3396463  12.7370083  58.0946016  71.1929607  12.3413765  57.9169416
  70.5450726  13.5623765  58.5336971  12.9599321  37.0134234  12.6501942
  13.4728026  37.7999306  12.8362179  13.0715525  36.4654112  13.4270179
  51.2518167   9.2261302  48.7856913  50.9270239   8.3277893  48.7246656
  51.6936731   9.2639607  49.6339607  36.7235875  30.6422949  57.2932673
  36.9312263  30.0633860  56.5597916  36.8166685  30.0890636  58.0688334
   6.2610275  56.3450527  45.2373505   5.3598022  56.2690020  44.9239159
   6.2169528  56.9962406  45.9375238  41.6952372  54.1544819   5.8062989
  42.1000147  54.7788239   5.2041519  40.8054113  54.4844675   5.9310275
  39.7420835  34.1736722  32.1537971  39.0269136  33.7773633  31.6560984
  40.3535509  34.4861722  31.4869523  60.7683134  24.9232936  35.3538322
  60.4535341  24.1694760  35.8527350  60.1451349  25.0102568  34.6325040
  31.3945055   7.5329930  60.5621099  31.9282961   7.2541404  59.8181057
  30.5604601   7.0789164  60.4420519  48.1465721  21.4667535  20.7198167
  47.4254847  21.7024159  20.1361012  47.7300215  21.3248229  21.5698600
   8.5203803   8.7498844  34.6857166   8.5328853   9.6374559  35.0438952
   9.0186489   8.8133830  33.8708973  97.2893715  38.8737869  39.7101855
  97.9358864  38.9066195  39.0050817  96.5678978  38.3581972  39.3498015
  43.4410763  79.8150396  48.6282492  43.2284641  80.4301453  47.9263449
  43.8117361  79.0562344  48.1776333  44.5708799  34.1652751  61.9819880
  43.6283922  34.1167045  62.1419716  44.9201965  34.6239138  62.7460957
   5.2249414  33.4564638  57.5010061   5.0223118  32.9988647  56.6850519
   6.0882640  33.1278706  57.7518654  40.6172562  47.9344654  50.5602694
  40.9016609  48.0792809  49.6578455  39.8868299  48.5411119  50.6814718
  98.9654064 102.5865841  39.1195679  98.5160351 103.3356285  39.5110011
  99.8054409 102.5456333  39.5766234  39.0063953  18.0641615  43.7221813
  38.2901406  18.6954546  43.6537647  39.7697759  18.5301542  43.3811045
  11.9399452  33.6857986  58.9922667  12.2914505  34.3419600  58.3904934
  11.5157104  34.1962194  59.6819925  38.9877439   3.3720332  25.5229354
  38.7712836   2.6753393  24.9032617  38.2604241   3.3735922  26.1452174
  22.5933146  39.1104817  42.4707603  22.3795390  39.4544172  41.6034412
  23.4596825  38.7173057  42.3656368  57.6973391  83.5325432  87.9734898
  57.8413248  83.2014465  87.0869923  57.2514963  82.8170967  88.4269047
  31.7368913  62.4747181  38.2113981  31.4079857  62.4308586  37.3135519
  32.5698781  62.9406595  38.1388378  11.2259686 102.7207088  38.4505653
  10.7993019 101.9923687  37.9992270  10.6220591 103.4556007  38.3435011
   3.4674403  28.7715387  37.9834628   3.1546342  29.4869804  38.5371113
   4.3763641  28.9995456  37.7882648  26.1626196  29.7987437  82.1292496
  25.3264737  30.2494740  82.0112228  26.6070151  29.8938966  81.2868214
  28.0862689  54.1289711  52.7947807  29.0286922  54.0756845  52.6359463
  27.9969740  54.0275145  53.7423897  34.4242883  76.2533808   7.1234900
  34.6922255  77.0019674   7.6564646  33.4690261  76.3080788   7.0967412
  32.8007627  12.9128623  27.7439666  33.2859898  12.1540022  28.0678773
  33.0025887  13.6102796  28.3677506  22.4803829  62.4334574  37.2373176
  23.3120060  61.9651985  37.1640325  21.8210983  61.7945766  36.9663715
  58.9159441  32.9486156  20.6049848  58.2809019  32.4097848  20.1331663
  58.4159899  33.7133145  20.8904982 103.2095909  45.5571938  16.8786490
 102.6876163  45.0805902  17.5241125 104.0739918  45.1481771  16.9204783
  45.9057760  49.5968056  41.4023161  45.4968262  50.0738239  42.1244287
  46.8188715  49.4933939  41.6702557  42.6312780  59.2240810  53.8155651
  43.2362461  59.9621010  53.7408924  41.8185616  59.5396566  53.4204292
  18.3627391  61.2776661  17.3483205  18.7597549  60.4958057  17.7321172
  17.4206769  61.1432981  17.4517429  36.6183019  67.0993519  23.7684345
  37.4140120  67.5874472  23.5566759  35.9284568  67.5383806  23.2708430
  14.8995829  27.1298647  58.1972790  15.7630599  26.7406130  58.3355665
  15.0804651  27.9711986  57.7781487  39.5227623  64.6000433  41.0202980
  38.6915445  64.7797298  40.5809546  40.0675631  64.1947699  40.3456306
  23.7599778  68.9098597  39.2092490  24.1897631  69.0786886  40.0477076
  23.3086801  68.0751753  39.3352175  41.6398430  34.7761583  48.7006903
  42.4010229  34.3530440  49.0979481  40.9707642  34.7567630  49.3849325
  32.5361919  18.5754871  34.8727202  32.8185225  18.0833709  35.6436563
  32.5528169  17.9357588  34.1608882  30.8614302  10.4207647  29.7671366
  30.6188560   9.7539210  30.4095602  31.6298938  10.8487380  30.1446748
 101.1711693  39.3351221  72.0739841 101.2293243  38.6051202  72.6903820
 100.2709866  39.6492529  72.1589899  20.6824660  51.7963123  76.5251684
  21.0338306  50.9868240  76.1543560  21.1216378  51.8825626  77.3712873
  54.2568636  33.8819504  32.9111624  54.7665405  33.4936333  32.2000575
  54.9128199  34.1751504  33.5436058  54.1005135  53.6535168  63.0249262
  54.3133640  54.4734287  62.5792027  53.3100843  53.3401251  62.5853395
  45.8044672  51.1392403  21.3281822  46.3946104  51.8400383  21.6054058
  44.9298477  51.5225601  21.3940477  11.4417279  48.6372519  35.0824952
  11.5012825  49.4843245  35.5242562  10.6283057  48.2531595  35.4096770
  36.4453912  44.8452091  29.6579719  35.6746483  45.0494862  29.1283894
  36.0886860  44.5251369  30.4865551  39.0845871  48.9380884  29.2050433
  38.8739419  48.2367945  29.8215199  39.9339128  48.6893177  28.8403654
  10.0987875  50.3296185  52.9381752   9.6581322  51.0774803  53.3416033
   9.8996031  49.5935726  53.5167885  83.2145786  57.0557880  49.3345928
  82.4442482  56.4904594  49.3914938  82.8580379  57.9331160  49.1952705
  76.4299011  70.6671715  86.5812206  76.0423231  70.7569885  87.4518204
  75.9656620  71.3098860  86.0449028  55.9897947  75.9749746  69.4059420
  55.7997370  75.4853487  70.2061749  55.8327818  75.3489065  68.6991024
  70.4979515  75.6231642  43.5966349  70.5339432  76.1432981  44.3993759
  69.8869419  76.0963440  43.0318403  71.3336372  68.5587835  63.4584856
  71.5619946  68.3161116  62.5611591  71.9299459  68.0462551  64.0043402
  98.4571362  66.5876341  25.1450157  98.1978321  66.2554550  24.2855692
  98.7995815  65.8210611  25.6047273  86.3683224  71.4580774  56.0821486
  86.3799095  71.5995264  55.1355267  86.4381123  72.3363066  56.4564228
  69.2669010  54.4683027  55.7176924  69.0806723  55.2558947  56.2288237
  70.1237965  54.6347284  55.3249264  71.6355944  70.9768343  55.5253553
  71.0861540  70.5082464  54.8970461  72.5317430  70.7931852  55.2435446
  68.5554028  78.0541945  32.2130990  68.4050846  78.7888432  32.8080177
  67.6953125  77.6457834  32.1147537  28.1326842   6.7036742  61.7305899
  28.4669232   6.4646763  60.8660698  27.4410129   7.3408592  61.5522146
  41.4298010  90.3102589  37.9379749  41.5565157  91.1724663  38.3339238
  41.8649769  90.3709316  37.0875788  62.0524549  88.0766582  64.1455603
  62.5988674  87.2912312  64.1732740  61.4161825  87.9507446  64.8495054
  50.4114151  81.0155106  49.3529797  51.2796068  81.1891365  48.9892101
  49.8584223  81.7098904  48.9948320  60.3399134  87.6697063  50.6032562
  60.0549221  87.5122738  51.5033817  59.5843220  88.0781364  50.1807642
  70.6094933  88.5505199  25.5517220  69.9125767  88.3850574  24.9167728
  71.4111471  88.5658741  25.0289011  86.8298244  65.4189634  50.6127119
  87.3688316  64.6281672  50.5943155  87.1780682  65.9292269  51.3438702
  89.9613571  66.7823458  55.5664349  90.0558853  67.7147532  55.7611418
  90.8275223  66.5123749  55.2612925  75.2181482  88.8294792  32.8665543
  75.8033705  88.6492157  32.1308589  75.7640696  88.7051296  33.6429167
  49.2577267  83.9283752  69.7242689  49.6637917  83.2305145  69.2101383
  49.3153286  84.7027493  69.1645813  74.8787498   1.1870390  36.8211031
  74.2048120   1.1092433  36.1458373  75.2558088   2.0561244  36.6841722
  62.2526789  65.9285164  58.6374903  61.8838549  65.5062103  57.8616905
  63.1046247  65.5086946  58.7565136  71.1556149  70.6272221  77.3733234
  71.3991976  71.0994339  76.5771341  70.8186722  71.3044786  77.9598570
  77.2886801  89.2038250  30.6754494  77.0067835  90.0983334  30.4840493
  78.2147789  89.2879391  30.9023786  48.5733986  80.6526279  37.8166413
  48.0164528  80.1078796  37.2605014  48.0943441  80.7200432  38.6425900
  76.0889292  76.3492823  56.1638594  76.2663698  75.5529118  55.6633186
  76.9552040  76.6963387  56.3768101  97.9342461  85.8960819  50.6078148
  98.5782528  85.2168369  50.8080769  98.3592701  86.7133141  50.8680534
  36.2427759  73.4617758  69.7175026  36.4930940  74.3229151  70.0521851
  35.4863524  73.2096052  70.2470922  81.7187309  86.7137337  36.1676359
  82.4810886  86.7006397  35.5889606  81.9679737  87.3039150  36.8788290
  35.4985690   0.8688109  10.5670869  36.4387345   0.9699211  10.7157481
  35.3640842   1.1720338   9.6692008  51.8675995  90.9553623  44.3647051
  52.5504351  90.6183052  43.7847376  52.2729063  91.7041683  44.8020220
  72.1131182  52.2500658   8.6722296  71.5720510  52.9178619   9.0935725
  72.9775143  52.6543474   8.5973603  68.3682203  75.4849052   0.4646008
  68.4658909  76.4337206   0.5448631  67.7790070  75.2434731   1.1792827
  63.6950350  80.4875374  44.8733568  63.6754179  79.5331478  44.8027563
  62.8963041  80.7087421  45.3522396  63.9717054  75.1304674  59.6927977
  64.4131756  74.5750427  59.0502739  64.3534088  75.9984064  59.5615911
  77.2512484  52.9090214  26.4770579  76.8427324  53.6393547  26.9417739
  77.7864552  52.4726868  27.1399307  76.6017818  90.0147820  72.0505190
  77.1213818  90.8186245  72.0594597  76.9184923  89.5333576  71.2862158
  67.8992033  84.5634460  19.9969149  67.4519539  83.8433743  19.5522773
  68.7222719  84.1820049  20.3023529   7.4550629  67.8574467  67.3765755
   6.5241951  67.6484203  67.4541998   7.5036150  68.7991428  67.5411320
  93.6760712  77.1035767  87.4188519  93.8692379  76.6852951  88.2578754
  94.5354176  77.2931957  87.0422840  10.8485448  55.3784466  47.4384928
   9.9623865  55.1261091  47.1791077  10.9042823  55.1400375  48.3638525
  46.4058399  92.9145336  69.5699120  46.9588280  93.6737919  69.3856430
  45.5894852  93.2878113  69.9022627  63.6385870  74.7032881  37.2802162
  62.8557444  74.3903637  37.7335000  63.4078646  75.5836964  36.9837618
  50.8209658  83.7644482  66.6173029  50.8182573  83.0811787  67.2876501
  50.9003448  83.2885742  65.7905769  80.2085590  53.3408976  60.0808525
  80.7720852  54.0347052  60.4233408  80.3181076  53.3902454  59.1312218
  92.9808426  75.6652308  59.6084929  93.1313896  74.7883654  59.2553949
  92.3463345  76.0589075  59.0096188  57.0240879  63.6756563  86.6065979
  56.1257458  63.4631395  86.3535118  57.5520706  63.4255457  85.8483696
  46.6691208  78.7464619  69.2110109  45.8477783  78.6813927  69.6982384
  47.2526264  79.2372942  69.7896576  98.0562496  49.6982002  65.2343893
  97.9525948  49.0717888  64.5180798  97.2296047  50.1804590  65.2523327
  66.0080814  66.4745188  28.6899781  66.5813589  66.7631912  27.9798698
  65.2109957  66.9929838  28.5801077 101.7817974   8.8141453  48.4611320
 101.7037296   7.8638065  48.5447645 102.5881386   9.0303594  48.9294100
  45.6068754  97.0528889  43.7571096  45.3577042  97.9176235  44.0832758
  45.2763510  96.4435577  44.4171858  59.5240974  85.9118748  32.2273493
  60.2393627  86.1121559  31.6236043  59.9532557  85.7853699  33.0735469
  65.8190441  69.9505091  61.5234184  66.7335176  70.2329445  61.5093994
  65.7721043  69.2580557  60.8642244  90.7903671  75.4480314  61.7183685
  91.0426807  74.9319744  62.4840403  91.5679169  75.4442024  61.1601353
  66.8883991  76.3307762  50.9391308  67.4149704  76.1018848  51.7050076
  66.3691759  75.5463123  50.7623291  87.8165817  78.8373232  50.8771801
  88.5970879  79.3526125  51.0809469  87.8731537  78.0775738  51.4566755
  40.1504230  89.4370270  41.0784912  40.4175138  90.2390003  41.5276289
  39.8439050  89.7332191  40.2214336  58.1284428   2.0191498  17.6834822
  58.0030870   1.9504504  18.6299479  58.9483309   1.5543866  17.5161111
  46.5459108  77.7705002  73.5337210  46.8178892  76.8749285  73.3331966
  47.3566723  78.2188463  73.7743092  84.3006420  52.6100016  39.4692278
  84.5354462  53.0131817  40.3050137  84.9858952  52.8952074  38.8648224
  31.6010499  47.0892429   0.6309786  30.9049416  47.6911831   0.3676685
  31.2091184  46.2197208   0.5500323 106.1618042  79.4023657  14.8987508
 105.3409863  79.5945263  14.4453537 106.5850258  80.2549839  14.9995720
  56.9542503  93.7072563  65.0780106  57.7694368  93.9505386  64.6392393
  57.2145939  93.0425262  65.7156467  70.9002590  82.5896358  43.3267307
  70.9699488  82.7567959  44.2666388  69.9716139  82.4064732  43.1842470
 109.5903873  61.4352274  79.2596388 109.6616173  61.2931252  80.2035522
 109.6171474  60.5559206  78.8823605  50.8938265  79.5592976  56.3222885
  51.3548183  78.7363863  56.4851952  51.4989376  80.2366734  56.6243458
  21.0787606  14.5786214  65.7859612  20.3081965  15.1240861  65.6280613
  21.1425877  14.0235078  65.0087833  75.9780359  57.5445700  24.6146035
  76.3327265  57.1043253  25.3870106  75.0319624  57.5574207  24.7595501
  69.2451954  87.2854900  59.8114824  68.4988117  86.7159462  59.9979210
  68.8770962  88.1690693  59.8073816  89.6645164  80.4027176  45.5578947
  90.2079487  81.1745453  45.7166100  89.8705959  80.1453686  44.6592665
 111.3045883  57.3658085  19.7131085 112.1552181  57.2928858  19.2802823
 110.9506226  56.4766073  19.6969593  51.8973970  74.4276142  32.9762864
  51.6001272  74.8572206  33.7783456  52.3106241  75.1264763  32.4692702
  93.2835388  53.9064169  38.5642576  93.4984016  54.6354675  37.9824042
  93.3454323  54.2765093  39.4448447  62.2072506  84.3063068  62.7081299
  61.9264793  84.3990326  63.6185122  61.4498615  83.9283276  62.2612143
 111.0663509  30.6172395  23.0725074 110.1739883  30.6334782  23.4184027
 111.3480854  31.5317965  23.0936050  56.7497206  89.3089199  60.6056786
  55.9017277  89.7529125  60.6092834  57.3912668  90.0174618  60.6569338
  77.0151138   4.4751248  38.5250115  76.9840908   5.4014045  38.2856894
  77.6393080   4.4357383  39.2496228 102.0939445  84.5442867  36.7151046
 102.6956367  83.9192963  36.3106370 102.4261284  84.6543121  37.6060510
  68.0495977  78.3108330  26.6317105  68.6772680  78.6601782  27.2643399
  67.4078608  79.0120125  26.5188193   0.1672966  87.2849655  37.8213739
  -0.3080032  86.7941380  38.4917521   0.6360619  86.6162205  37.3221040
  77.5186443 103.3678913  37.2632217  77.5326204 102.4608517  37.5687051
  77.0827293 103.3272457  36.4120102  64.4282913  40.9483004  22.7036357
  64.9348259  41.6943169  22.3825192  63.7520695  41.3385105  23.2574320
  49.8885345  84.6929455   0.4119585  49.4108868  85.0750542   1.1482198
  50.7005596  84.3644238   0.7978677  92.8694916  45.4693413  75.2225208
  92.0525169  45.3253555  75.7000685  92.9124928  46.4179468  75.1020098
  65.9375811  21.3497639  52.3270130  66.0390043  21.0437655  51.4257288
  66.6888762  21.9252491  52.4705458  65.5796099  87.1654606  33.6595321
  66.1898804  87.9024220  33.6858797  65.9723806  86.5512943  33.0392361
  26.0039949   6.6822356  44.7703028  26.4299297   7.1433550  44.0476799
  25.9997344   5.7642239  44.4992495  79.4416904  78.6766529  33.1081653
  79.0066719  77.9052448  33.4713697  79.1663599  78.6975908  32.1916580
  74.0919971  78.8001060  78.8158846  73.2720709  78.9261723  79.2934370
  74.2055511  77.8502846  78.7814999  96.5740967  87.3919201  41.8234062
  95.8261967  86.8708324  41.5312481  96.5787601  88.1516457  41.2411451
   9.0013748  63.4802675  43.1146526   9.2315555  62.6606846  43.5522938
   9.8399758  63.8435173  42.8299904  59.8478413  71.6932535  68.5996056
  59.3248749  71.4164829  67.8471851  60.5753088  71.0717583  68.6272955
  58.0430555  95.8342266  46.0432291  57.7426958  95.1430893  46.6334343
  57.9627800  95.4538631  45.1685238  63.1698322  78.2594824  82.9315948
  63.7296629  78.4438419  82.1773815  62.3293638  78.0063152  82.5498199
  79.3697548  84.4116688  54.5580435  79.9457836  85.1743793  54.6100569
  78.7728500  84.6110725  53.8368130   2.5050092   2.6579824  19.0849531
   2.9005986   2.7242756  18.2158458   2.6431093   1.7463610  19.3420637
  54.8064518  73.1674099  63.3832359  55.5574274  72.7910280  63.8421535
  54.7053480  74.0395880  63.7644339  59.2496586  99.5303631  88.2509422
  59.2309713 100.0010204  87.4176598  60.0861454  99.7760773  88.6460972
  81.8345547  95.5068779  21.4081311  82.6745510  95.0479889  21.4161730
  81.4916706  95.3633690  20.5260491  16.3265359   5.4182249  41.9349003
  15.4007185   5.3897387  42.1763182  16.4526236   4.6498874  41.3781309
  79.2888594  99.0562248  67.4281120  78.3798742  98.9788437  67.1383095
  79.2641497  98.8285637  68.3575153  52.8768730  99.4851494  52.1270943
  52.8567886 100.1576900  51.4462662  52.7098131  99.9621677  52.9399729
 105.5956650   2.1611805  40.9834242 106.5175533   1.9760309  41.1625290
 105.6104660   2.9529041  40.4456615   3.7843210   7.9035616  25.1294637
   4.5700812   7.4503934  25.4351616   3.1355655   7.7475369  25.8157611
  82.8295040  70.9201193  27.4728179  82.2990322  70.2395201  27.0585537
  82.2035980  71.4345503  27.9825568  79.3972397  77.7784348  48.3232021
  79.2465162  76.9101858  48.6969137  80.3056812  77.7553463  48.0224848
  72.4587631  93.8195801  85.7233429  71.9642830  93.0895424  86.0958481
  71.8793154  94.1849709  85.0547886  61.0369158  75.2042913  51.0206413
  61.5688944  74.9257898  51.7660713  61.6646004  75.3150320  50.3065109
  42.7693844  81.2153530  21.8691516  43.1117821  82.1048737  21.7811608
  41.9061041  81.3292313  22.2666550  81.5024948  78.9020920  28.7125230
  80.6492329  78.8873816  28.2789707  81.3964844  78.3259010  29.4694924
  73.8773727  87.7447796   6.8925697  74.6770525  87.7031231   6.3681561
  74.0041542  87.0860577   7.5753933  88.4398079  74.9427891  44.2464352
  88.1873989  75.3968430  43.4424686  89.0760803  74.2869234  43.9614201
  96.7421150  54.1930532  60.2262831  97.3070812  54.2411613  60.9974670
  96.7744064  53.2734251  59.9627066  78.6574936  94.7541523  44.1975212
  77.8144073  94.9761200  43.8023472  78.8046932  93.8410950  43.9507580
 106.5125179  72.7218819  40.1500463 105.9686470  71.9688845  39.9188876
 106.6099644  73.2074213  39.3309069 107.4372101  82.2111511  38.2048392
 108.1757450  82.5299644  37.6860356 107.7278709  81.3625908  38.5390592
  71.7669392  60.5606556  55.9515762  72.4547911  61.1939478  56.1565971
  70.9593630  61.0744953  55.9555721 102.8500366  98.7253952  22.9157352
 103.6962128  98.4091759  23.2323360 102.9752922  98.8427258  21.9740486
  90.3727818  72.6401424  68.1721115  91.2369061  73.0122852  67.9959917
  90.0092125  73.1948996  68.8622522  95.4562569   4.7088030  55.0593424
  94.8365784   5.2045131  55.5946016  95.1035786   4.7644165  54.1712189
  96.1487293  53.9245987  53.2635355  95.5936813  54.6893024  53.1106281
  96.4658165  53.6810493  52.3938417  73.9265299  81.0406876  19.9309266
  74.6493816  80.4231739  19.8196268  73.2952929  80.5742836  20.4788637
  64.8199940  70.5869818  64.2759514  64.6410227  70.0918150  63.4765720
  65.7432270  70.4159307  64.4620037  73.0306387  91.1208630  63.2596159
  73.9109373  91.4950275  63.2958460  72.8361130  91.0563374  62.3246145
  93.1510353  89.6703529  51.7948818  93.9839649  89.7191143  51.3257599
  93.2888031  88.9938068  52.4578619  66.5354586  76.3627863  44.2692852
  65.6582022  75.9976053  44.1539717  67.0890379  75.8454609  43.6843443
  34.7774410  29.8721600   2.6968431  35.1052284  29.0279317   2.3868924
  35.5579019  30.4223323   2.7633485  54.9269819  54.7897434  15.9884989
  55.0555992  53.8417768  15.9561694  55.0069857  55.0734997  15.0778329
  55.3681135  74.9489832  17.3226428  55.1305056  75.4484844  18.1038427
  55.6750631  75.6086922  16.7007124  92.8595161  73.2825661  55.7917166
  92.8946495  73.5806036  54.8827791  92.2356033  73.8733482  56.2135506
  68.5255671  89.5549011  78.7195492  68.6718845  89.7778130  79.6388626
  69.1845751  88.8879204  78.5270071  80.0784492  69.8623657  45.5764055
  80.5433750  69.5419931  44.8034573  80.6033134  69.5557165  46.3158083
  77.8412867  84.8565769  66.0998201  78.5511732  85.2955532  65.6312180
  77.0830774  85.4273796  65.9751558  96.0437679  72.5896263  46.4424133
  96.6421127  72.7370214  47.1748638  96.1906433  71.6772318  46.1930227
  69.0195465  72.3747444  44.9041319  69.7351837  72.6509476  44.3315887
  69.0024376  71.4211321  44.8231316  82.0081834 105.0751457  70.9007549
  82.0151709 106.0318765  70.9298897  82.9258219 104.8325860  70.7769156
 105.8612728  78.7525320  56.4846230 105.8656788  77.8187561  56.2742233
 104.9424553  79.0104294  56.4104557  13.4025037  12.1914363  20.8930612
  14.1172898  12.8178525  21.0067129  13.7476218  11.5429926  20.2793479
 106.7906189  67.1622896  45.3273582 106.4496994  67.9906750  45.6646824
 107.7303982  67.1998644  45.5052233  41.0694551  72.5117493  53.2555056
  40.3319931  71.9470263  53.4867477  40.6934452  73.1689692  52.6699209
  91.3418865  98.5873890  58.5370064  92.0821381  98.7809563  57.9618597
  91.6491985  98.8262081  59.4115114  94.8770523  93.6189461  57.4342203
  95.6170750  93.3657551  57.9860353  95.2777767  93.9121628  56.6158867
  61.8090773  99.0862370  37.3458481  61.9355488  99.9400520  36.9320464
  62.1883440  99.1847897  38.2191610  81.7490005  65.2755117  72.1134377
  81.3504601  66.1327076  72.2638083  81.0503864  64.6497107  72.3045826
  85.2509785  76.1872625  79.8516655  85.4758263  76.7191505  79.0882683
  85.0516319  76.8246746  80.5373764  92.5336647  87.8711796  54.0613985
  92.8327942  87.4923897  54.8880005  91.8279457  88.4671021  54.3125105
  85.7423115  93.7088966  32.1076059  86.5354824  94.2250061  31.9635558
  85.9007072  92.8901196  31.6377807  74.1295767  65.3870535  40.0317478
  74.4419861  64.8189163  39.3275809  74.1255713  64.8266268  40.8077192
  70.4738379  40.3949165  30.0020957  70.4516935  41.2629414  30.4049349
  71.4006805  40.2383375  29.8213291  67.5343704  55.3441429   9.6367091
  67.8410721  56.2405014   9.4999415  66.9619846  55.1702118   8.8894784
  95.2175140 101.2758350  82.3889256  95.0045204 100.4964828  81.8756199
  95.8818913 101.7298508  81.8705559  94.1121197  68.9086866  35.5227256
  94.6419811  69.5616817  35.9799790  94.2977619  69.0563297  34.5953798
  70.6073618  79.5524883  55.5579472  70.5628729  79.4717026  56.5106964
  71.5389109  79.4701433  55.3538322 110.3269291 101.0164928  49.6710014
 110.1316833 100.0851536  49.5674515 110.7387638 101.2682247  48.8444090
  81.6767502  73.7368774  19.8196650  82.4355412  73.5258865  19.2756438
  81.7224884  73.1151390  20.5460095  80.0853539  60.5278635  41.4229345
  79.9671078  59.6072912  41.6570234  79.3556786  60.9786844  41.8478632
  73.0678988  80.2621174  45.9882736  72.8426981  80.1238728  45.0682735
  73.5889673  79.4949293  46.2252092  68.2237101  56.4474869  33.1723642
  68.0156088  57.3515654  32.9366231  68.8219070  56.1525631  32.4857688
  68.9649630  62.0175886  32.9110217  69.4488478  62.8080940  33.1501651
  68.8346672  62.0932865  31.9657564  64.7552824  92.2313023  58.5085297
  65.0269127  92.4132538  57.6088953  65.1886082  92.9064083  59.0307379
  75.2780342  67.5537205  49.5128012  74.9792004  67.4458408  50.4157352
  76.1914825  67.8280449  49.5939827 112.5423050  92.5111485  41.8573475
 112.9382133  92.1236134  41.0767698 111.6528225  92.7389050  41.5868235
  83.4815407  64.3025923  42.5876760  83.6803627  63.3662701  42.5872087
  82.6210022  64.3645096  43.0022430  10.1773024  84.4207001  28.4507442
  10.3053284  84.8469067  29.2982054  10.9980011  83.9548492  28.2905197
  65.1605749  65.3771782  49.9694204  64.5725107  64.9422026  50.5868435
  64.8569298  66.2846947  49.9482441  73.2497406  57.3360109  49.8251057
  73.5422277  57.4066019  50.7337856  73.8645124  56.7226124  49.4225740
   3.2615218  70.3438902  62.5607061   3.8485128  69.8699284  61.9716120
   3.2703325  71.2437963  62.2346354  81.0830307  75.8333302  42.4073315
  81.2180233  76.7710543  42.5440359  80.2513504  75.6451654  42.8422213
  39.8485470  76.2697268  64.9381924  39.6244383  75.7577372  64.1611004
  40.4457760  75.7073927  65.4314756  65.2581787  69.7719002  55.5083179
  65.5598164  70.4299212  56.1346245  64.6394634  69.2354107  56.0039043
  82.7549744  77.2142315  48.8664341  83.4300327  76.9019127  49.4689178
  82.6047134  78.1233549  49.1255522  85.7387543  72.2352982  49.0027714
  86.0718727  71.9419336  48.1547165  84.8971176  71.7891645  49.0968370
  81.0781860  90.0885963  66.8839407  81.4457417  89.2095184  66.9754028
  80.3505325  90.1098251  67.5054741  66.6850758  69.4510698  44.6868038
  66.1406279  68.6891603  44.4885397  66.4252520  69.7073698  45.5716944
  44.4577169  81.4149857  67.6768494  43.8066339  81.1962509  67.0101595
  44.1793871  82.2668934  68.0130339  19.5786643  43.8019276  84.9185181
  20.3412867  43.2355070  84.8010159  18.8429773  43.1967497  85.0120926
  79.7533417  89.9254322   1.8088417  78.9060068  89.4885254   1.7229839
  80.3580856  89.2277145   2.0612529  79.4784355  63.7605381  37.1994209
  80.2474880  64.2625618  37.4691772  78.7356567  64.3206644  37.4247336
  93.1465244  69.1648769  15.8623445  92.3917103  69.4444704  16.3803339
  93.3506012  68.2889366  16.1899281  69.8708582  50.9215450  40.9056568
  70.6497145  50.9113312  40.3493166  69.7262478  50.0028419  41.1321545
  76.9185305  56.5794849  56.9219828  76.5749979  56.0080147  56.2352228
  77.8485680  56.6706514  56.7147207  99.4409847  17.9302478  34.6622610
  99.9849129  17.3741758  34.1044497  98.7639236  18.2682383  34.0761089
  64.5085573  81.3747215  33.3330512  63.7446737  81.9337463  33.4752059
  65.2580261  81.9464493  33.4993339  90.8313942  89.5199585  40.6761217
  91.5506172  89.2280293  41.2362337  90.2578545  88.7568760  40.6055498
  69.9401426  55.1477623  31.3597727  70.5527687  54.4989586  31.7061424
  69.2539072  54.6290350  30.9399676  33.9093494  23.5768580   0.8956124
  34.3758130  23.2255554   0.1371718  33.2612157  24.1743231   0.5225317
  78.7866306  70.7239056  60.9070253  78.5020876  71.6143608  61.1128378
  78.3842564  70.1811457  61.5850687  74.1408157  79.4011450  12.1643686
  73.4114695  79.9579620  11.8918884  74.4167471  78.9581728  11.3619542
  74.2849159  70.3034115  62.4356222  73.9357185  71.1945152  62.4206305
  74.1710281  69.9864340  61.5396404  59.7991991  46.5859747  16.3361716
  59.5543337  47.1984959  15.6425667  59.6857405  45.7207870  15.9427142
  66.6505098  72.7498341  48.4824514  66.0324430  73.3812046  48.1142235
  67.5118017  73.1330299  48.3164263  81.0747528  84.2962551  49.1959333
  81.0318184  85.0812435  48.6498737  81.3550091  84.6160698  50.0534916
  77.3429680  71.6864872  30.9569287  76.6743946  72.3023748  31.2567997
  77.4614954  71.0849905  31.6920400  46.1259937  92.9207325  60.6082106
  45.3132582  92.4733448  60.8438873  45.8716297  93.5303211  59.9154425
  76.2812424  85.0143719  23.2468915  75.6622171  84.4538689  22.7790475
  77.1094131  84.8972797  22.7814317  35.4565644  70.2148819  65.0170660
  34.8967600  70.9364843  65.3036690  34.9745345  69.8095036  64.2962646
  67.7932739  65.8785391  26.4160275  67.6393414  64.9744701  26.1418080
  67.2575235  66.4036703  25.8215213  80.3165817  75.4111910  45.3613997
  81.1214638  75.9285402  45.3887606  80.6113052  74.5192528  45.1774931
  82.1802425  69.1811848  33.2498789  82.1136475  68.4857559  32.5955248
  83.0786133  69.1194344  33.5744452  80.6800365  71.9188213  36.6344333
  81.5325165  72.3419142  36.5319467  80.3006744  72.3295403  37.4113655
  95.2386856  95.1853371  61.9773149  94.9004269  94.3146610  62.1864605
  94.9811649  95.3299904  61.0668278  75.2001715  98.7919712  13.1844640
  74.7809410  98.0660629  12.7223730  75.5063152  99.3738365  12.4887991
  98.7039375  77.0094776  56.6160679  98.4091759  77.3168278  55.7588148
  98.7637615  77.8033209  57.1475458  71.7183733  64.2229605  29.9727273
  71.1529350  64.0508652  30.7256532  71.5752172  63.4770155  29.3902278
  69.8731899  55.1176548  37.4102640  70.7743120  55.1780701  37.0931554
  69.9265242  54.5455027  38.1757903  63.8405609  94.0649796  15.9552181
  62.9242563  94.2095470  16.1912656  63.8459682  94.0761852  14.9980986
  88.7891293  59.2496920  33.4344172  87.9646206  59.0344954  32.9983974
  89.3293953  59.6386385  32.7466226  90.4994869  89.3062687  34.1609216
  90.4284382  89.4876862  33.2237601  91.4364529  89.3684101  34.3465567
  72.2512960  76.1246920  41.2961674  71.8710423  76.3384676  42.1481895
  73.0585575  75.6547546  41.5052795  35.4932904  91.0321712  63.5500431
  35.4851389  91.9874001  63.4893131  35.0525141  90.8410358  64.3779421
  82.3454380  83.8223553  36.0862041  83.2478428  84.0268707  36.3312984
  82.2347927  84.2229366  35.2239227  42.1514702  84.0980911  63.0145597
  41.5368032  83.7975788  62.3451519  41.6419840  84.0979958  63.8249063
  98.1750393  65.9476089  51.3209581  98.1155586  66.2635851  50.4193735
  98.5180855  65.0576067  51.2406969  74.1045046  78.1845999  47.7290678
  74.0567970  77.6109886  48.4938765  75.0344992  78.2062054  47.5035238
  97.7100754  91.9678020  34.5119071  98.0793095  91.4948559  35.2577090
  97.0629120  92.5574684  34.8988318  55.8760500  94.5980453  61.2208033
  55.7381153  94.4915867  60.2795935  56.0901070  95.5247974  61.3281918
  83.5902214  13.2240748  40.3546238  82.9522800  13.7579310  40.8281898
  83.1366348  12.3970437  40.1918030  79.0184641  95.2179909  65.5770206
  79.9216270  95.5321217  65.6201601  79.0341473  94.5351696  64.9063969
  87.1091270  74.2298794  71.6752720  86.8364239  75.1246834  71.8782282
  87.8474712  74.0656328  72.2618723  87.3999310  97.8182220  28.7352228
  87.2203636  98.2138538  27.8823090  86.5627956  97.8560734  29.1978264
  59.1921377  87.9822731  29.2675805  59.4551229  88.1486511  30.1727796
  59.9553919  87.5637054  28.8694954  14.3600309  78.0136490  55.5570745
  14.9804854  77.5947094  56.1535263  13.5195863  77.9647017  56.0125828
  96.7860699 101.6338539  84.5564175  96.6546822 100.7650185  84.9359989
  96.1757088 101.6682434  83.8198566   0.7853983  80.8499718  22.1764612
   1.3306791  81.2838554  22.8326917  -0.1013158  81.1614799  22.3579288
 100.2284622  95.5399132  73.0316496 100.4295444  95.2214336  72.1516657
 100.2863693  96.4927101  72.9605818  86.5346527  84.8313046  35.2470922
  86.1560059  85.6546593  34.9389648  85.9046650  84.5032787  35.8887720
   2.4186689  98.0661106  46.7788267   1.7858419  98.6635685  47.1773338
   2.3597336  98.2458210  45.8404970  78.9443493  56.4353800  28.2938886
  79.3918276  55.9262419  27.6180387  78.0132866  56.3165855  28.1061387
  67.0827770  94.6282196  15.0503480  67.3449087  94.3196011  15.9176886
  66.9970369  93.8306046  14.5281374  97.4964619  80.4693413  24.2205763
  97.7295399  80.5128002  23.2932067  98.0085659  81.1671925  24.6292114
  52.8667784  22.4641275  22.5288701  52.0988607  22.8580713  22.9428124
  53.4537697  23.2016015  22.3621202   4.2054251  10.3162622  30.3862357
   3.4318447  10.2026892  30.9384203   4.9440044  10.2430093  30.9906912
  85.2920437 101.8764496  45.6101418  86.0958672 101.3576794  45.5788660
  84.8048496 101.6104984  44.8303080  99.1949749  58.4828854  45.9419250
  99.7924995  59.1694212  46.2383413  99.5195770  57.6856613  46.3606119
  68.9593029  91.1647320  48.6846399  69.2417574  90.4566002  49.2634201
  68.3510208  90.7473469  48.0747128  52.9743528  77.9923296  53.1459045
  53.7443495  78.5334921  53.3204985  53.2909155  77.3087978  52.5553083
   8.3481157   3.7155122  44.1442204   7.8980130   3.6477998  43.3021641
   9.1282558   3.1701365  44.0433311  91.3186455  80.1162338  48.0844784
  91.4597702  79.9494743  47.1525383  90.7058048  79.4343901  48.3596849
  87.1698570  84.3190098  60.1607275  87.5690365  84.8329067  59.4587374
  86.5848827  84.9332237  60.6043148 103.1104565 103.2356739  20.0702453
 102.2145367 103.2369328  20.4072332 103.6374664 103.5832977  20.7897282
  83.3267403  93.2835865  26.5459275  83.4795952  92.4750614  26.0568953
  84.2008781  93.6474133  26.6864371   9.4390613  78.4273672  31.2884521
   9.9424684  77.7017403  30.9192896   8.5416269  78.0975628  31.3339639
  62.9384041  75.2633286  48.8723326  62.7713442  75.9376049  48.2137966
  63.7042379  74.7922993  48.5439014 108.2582760   9.1483223  60.7665062
 108.9628315   9.7688729  60.9529495 107.6921749   9.1900474  61.5372276
  31.0347962  16.0671091  39.8560524  30.6347585  15.5426610  40.5497074
  31.1349344  15.4590821  39.1235852  76.3866806  85.7516098  55.8548212
  75.4814863  85.8866310  55.5744171  76.9032288  86.3099957  55.2737713
 102.1725559  62.3393583  39.9201417 101.4976883  63.0127478  40.0057411
 101.9135761  61.8375969  39.1472292  91.1842918  65.4662037  50.5789804
  91.5169239  64.6726036  50.9982586  91.7367840  66.1682415  50.9226751
  24.8516250  44.3236446  87.3728180  24.0095758  44.6271420  87.7120495
  25.0687265  44.9462032  86.6789055  96.3207912  78.2205153  60.8719397
  96.4794922  77.2855234  60.7422018  95.3686333  78.3097553  60.8311510
 110.9345913  23.8799024  45.3229380 111.0095310  24.0474963  46.2623692
 111.7166805  23.3719659  45.1071262  60.2620125  92.6636028  34.0227199
  59.8728275  92.5534821  33.1551719  59.5700884  93.0680847  34.5460391
  89.0803337  25.8123660  15.4775035  89.1472435  24.8637938  15.3681231
  88.2662296  25.9404850  15.9643805  18.9136147   3.0919787  37.4893498
  18.9661324   3.7955001  36.8424082  19.8254704   2.8959796  37.7046084
  76.1845160  95.6259823  43.5263920  75.7176161  94.7937107  43.4518099
  75.5931616  96.1883736  44.0266371  92.6403618  90.1662350  29.2098045
  92.0132828  90.7252598  28.7509990  92.1073532  89.4635963  29.5818591
  62.4759245  99.2631245  59.1837358  63.2003927  98.7039471  58.9032078
  62.8266907  99.7551441  59.9261045  74.1104412  93.4105587  52.1645927
  74.6214581  92.7135563  51.7531586  74.2849350  94.1839790  51.6283083
  48.5071945  75.4616308  32.7150345  49.3788195  75.0990486  32.8732514
  48.5376215  75.7722139  31.8101358  97.0637608  10.6949043  51.6649866
  97.0412731   9.9720782  51.0378933  96.5835476  11.4015126  51.2333250
  87.8462601  20.1998067  75.1498842  87.1245956  20.7875705  74.9263620
  87.7826595  20.0925732  76.0989332  66.3788128  95.2098274  34.3326092
  65.7716799  95.5250549  33.6630917  66.1156893  94.3024445  34.4864178
  80.0702858  90.8575058  69.3310165  80.4778099  90.9973717  70.1857662
  79.8501301  91.7369461  69.0238571 101.4712238  13.0826426  45.9344959
 101.6462612  13.2068372  45.0016689 100.8689785  12.3394084  45.9683084
  63.4198380  15.4234350   6.3484848  62.8801346  14.7169757   6.7032564
  64.2829752  15.2842462   6.7381680  28.1341910  45.5431128  88.3246613
  28.1061292  45.1620340  87.4470425  27.6064610  44.9505854  88.8600540
  74.5460701  83.6908150  52.2317696  74.1468859  83.7804604  53.0971289
  74.0292597  83.0113316  51.7988253  80.9896946 104.3518162  59.5939064
  81.6650772 104.7610092  60.1348782  81.2717533 103.4412861  59.5066977
  52.1718884  98.0432606  33.4623075  51.8458462  97.9714489  32.5652170
  53.1194448  98.1384754  33.3658648  11.7094886   8.4318286  34.5032692
  12.2393656   8.3365399  35.2947116  11.3020480   9.2936158  34.5901370
  76.3074350  82.2450161  24.5799446  75.6366110  82.3039150  25.2602053
  77.1152925  82.5158405  25.0161266  52.6950455  89.9182987  27.5510240
  52.5751543  90.7660389  27.9790354  53.4321976  89.5189095  28.0129051
  67.8173113  68.2757139  48.9485931  67.3651123  68.5822058  49.7346020
  68.6658525  68.7180090  48.9726257  83.6929893 102.2711277  27.5008321
  84.6107197 102.2120953  27.2352743  83.6847019 101.9576263  28.4051991
  71.0269594  73.2677317  36.0248494  70.5367994  73.6151361  35.2796769
  71.3691139  74.0434837  36.4691114 111.0303783  78.1174183  46.3018751
 111.2000465  79.0488243  46.1607361 111.8891716  77.7451849  46.5022278
 109.6874523  22.5267076  24.5422578 109.0817738  21.9436073  24.0846777
 109.2356682  22.7506948  25.3558636  84.1636181  82.5279522  55.6984425
  84.5741463  83.2357883  55.2017927  84.6809864  82.4674702  56.5015030
  42.2287416  76.2554407  55.2836561  43.1454515  76.5303755  55.3005123
  41.9084930  76.5418100  54.4282770   4.0102515  31.2731099  84.3482208
   4.3713447  30.4145312  84.1275692   3.2503074  31.3680887  83.7740231
  45.0998545  99.3335629  20.0160313  45.2851629 100.0649166  19.4269526
  44.2035961  99.4877243  20.3146791  35.9268832  28.3819532  91.6906548
  36.2802958  27.5020266  91.8212700  36.0678577  28.5611224  90.7610035
  81.5106964  65.5539227  50.8102083  82.3002434  65.2353239  50.3727913
  81.7894554  65.7308006  51.7086697  66.7058039  96.2744331  12.8224933
  66.7528534  95.7474136  13.6201549  65.8633471  96.0426521  12.4316311
 110.4435730   2.7674001  40.1021767 109.5168018   2.5393593  40.1751661
 110.9062672   1.9471446  40.2734232   4.5399913  29.7169805  44.0859032
   5.3311509  29.9182940  43.5861349   4.8376417  29.6628881  44.9940395
  11.1567557   3.3643672  43.8671827  11.0066915   3.8561064  44.6745872
  11.4558041   2.5043967  44.1625643   3.8464415  81.1178875  48.4839153
   3.6786675  80.2173519  48.7616253   4.3088415  81.5140724  49.2224646
  58.3139610 104.3562031  18.6478257  58.1881332 105.1963520  18.2067513
  58.1831408 103.7029171  17.9605591   0.4515164  17.9506660  47.3393202
   1.2270612  17.7503121  46.8152809   0.7780018  18.5051095  48.0480051
  93.9694595  89.7162724   5.8817959  94.4553185  89.7188663   5.0570714
  93.0495548  89.7355843   5.6179148  80.4879189  71.5540314  48.9507198
  81.3051510  71.0635948  49.0392303  80.7416344  72.4677658  49.0808821
  77.8022337  82.0554161  15.3233504  77.9551554  82.9056358  14.9110711
  77.2919416  81.5650368  14.6788669  41.2840939  90.5153084  44.3046379
  41.5311480  89.5952415  44.2114735  41.3503790  90.8719730  43.4188461
  74.5876455  91.6993427  69.3742895  75.3528547  91.7022514  69.9493313
  74.3473864  90.7757759  69.2999935  86.3453770 100.7375431  61.7396975
  86.3414478 100.9978580  62.6608133  85.8069229 101.3969898  61.3021517
  73.0859804  92.9083347  49.2159605  73.5253859  93.4675217  48.5752869
  72.5458670  93.5099030  49.7284269  27.6677966   0.4742512  63.3250523
  27.6215124   1.1918938  63.9567804  27.5548959   0.8969433  62.4736881
  65.5507088  89.5918751  59.0875912  65.3229046  90.4874039  58.8378906
  65.3388643  89.0667820  58.3158112   0.7413042  72.2559261  82.9710770
   0.6188872  72.5735140  83.8657188   1.6618016  71.9961834  82.9329777
  37.1343255   5.4376727  31.6808319  37.7747893   5.1911926  32.3481274
  36.4985943   5.9799618  32.1477365  57.4512863  79.7401190  19.3489230
  58.2251453  80.1626873  18.9763522  57.4344492  78.8724136  18.9451444
  87.9203033  23.5181856  50.6875992  88.1646633  23.2011819  49.8181009
  88.4084988  22.9593182  51.2922192  79.0108633  70.4758883  55.1946259
  78.2463360  70.3191853  54.6403980  79.7283173  70.6204891  54.5777130
  72.0926762  79.6047926  43.0572653  71.4934301  80.2820110  43.3711195
  71.5725708  79.0932322  42.4375677 105.8476448  82.8270721  48.6155558
 105.4411125  82.3292923  47.9062128 105.2209282  82.7715302  49.3369198
  41.0074520   7.4283880  74.0370560  40.0675344   7.4809510  74.2103195
  41.1483240   6.5255564  73.7519550  79.0492964 101.8112087  32.1391916
  78.9779186 101.2110615  32.8814602  79.9231005 102.1928883  32.2229552
  74.5472002  73.0409145  56.2666464  75.1386833  73.5625887  55.7242155
  74.4540501  72.2144270  55.7928610  94.5244503  95.8731174  35.1157665
  93.9562225  95.7505035  34.3552971  94.4646358  96.8082619  35.3111529
  87.7114964   3.4739450  27.2975802  87.4078846   4.3535614  27.5219202
  88.1019878   3.1419122  28.1059790 106.1047649   4.6830261  46.3239527
 106.6137028   5.1279545  47.0016384 106.7530060   4.1854852  45.8254862
  84.0662766   5.0214863  10.3603959  84.1203022   5.3352952  11.2630796
  84.7239876   5.5329955   9.8892295 107.1380615  74.7269297  46.5520430
 107.7515030  75.4487944  46.6892815 106.9317532  74.4170046  47.4338675
  82.5872898  30.8919406  47.3566484  81.7966747  31.3018823  47.0057631
  83.2254887  31.6037822  47.4036980  15.0491965  81.8515396  44.8224545
  14.6733832  81.5679932  43.9890289  15.4688287  82.6885414  44.6235466
  45.8322811  69.4322777  54.8194027  45.6317091  69.9171925  54.0188599
  45.6590128  68.5179424  54.5953512  35.2857924  21.2845063  52.5691414
  34.3522644  21.4631200  52.6825094  35.3434348  20.8385396  51.7241430
  45.8173609  73.7273216  27.4609590  45.2686024  73.1495476  26.9306087
  45.7917500  73.3437729  28.3375812  99.5565605 104.2089176  62.0525312
 100.0346756 103.4163380  61.8086767  99.4441032 104.6837139  61.2290335
  45.1149130  93.1983566  57.1024132  44.8825741  93.9095402  57.6994610
  44.2874289  92.9532146  56.6884041  53.8791132  71.5885162  55.8951473
  53.3799076  71.8102503  56.6811895  53.2398987  71.1767769  55.3136730
 109.4040108  75.8349466  40.3349876 109.0702629  76.0123682  39.4555783
 110.1131916  76.4667130  40.4540062   2.0210613 100.3121376  67.1814775
   2.5080085 100.7867908  67.8551388   2.2054312 100.7887268  66.3720942
 101.7585182  78.7124348  26.1886692 101.0049534  78.4052992  25.6846523
 101.4615345  79.5291805  26.5898633  77.7961445  77.9839039  62.6393080
  78.6371946  78.2705212  62.2833347  77.8748655  77.0320702  62.7029562
 106.0190868   1.8131112  63.7038279 106.4920616   2.3915908  64.3020630
 106.6500187   1.6172634  63.0111504  77.7414989  91.2668896  64.9010468
  76.9995832  90.9173298  65.3945971  78.4046173  90.5780220  64.9454498
  56.3564253  87.6482391  58.3818579  56.7159271  88.2321739  59.0496969
  56.2807894  86.8007278  58.8203144  98.7025166  85.0483990  25.9412241
  98.9584064  84.1934967  25.5949616  99.2543888  85.6726074  25.4700303
  92.5683308   3.9376244  76.7572784  92.4396229   3.9784780  75.8096504
  92.2635651   4.7867367  77.0772123  65.5733109  81.5328884  41.0731459
  65.6066799  81.3351631  42.0091057  65.2527809  82.4337959  41.0299492
  93.7714291  73.5908270  77.9448366  93.7464905  74.4927311  77.6251793
  93.0764389  73.5502529  78.6017799  96.3556576  87.6358986  31.5458155
  96.3010311  86.6860580  31.6509676  96.3825893  87.9747772  32.4406171
  82.4375534  25.8571696  45.4790401  82.6240921  25.2528238  44.7605658
  81.5876675  26.2377048  45.2573919  94.2891407  11.6472137  45.5022287
  94.5273018  11.7658210  44.5827484  95.0066566  11.1320055  45.8709574
  74.1817474  94.0969658  58.2765198  74.7514057  93.9889622  59.0381384
  74.0541697  95.0429344  58.2050753  97.1202755  15.2616906  36.0401392
  96.7247200  16.1234450  36.1711001  98.0282211  15.3693509  36.3234496
  82.8905392  94.6784592  18.5228837  83.6745167  95.2265644  18.4883738
  83.2172680  93.7857723  18.4107602  60.1420546  92.9860878  24.7259259
  60.7116318  92.4160385  24.2093396  59.7230959  92.3991966  25.3554225
 111.0928535  57.6016140  51.1664057 111.3960552  58.5082245  51.1177969
 111.0860634  57.3022652  50.2572441 110.3007412   2.9895404  27.4590564
 109.6279144   2.7382216  28.0918026 110.0418377   2.5524229  26.6478062
  88.0138111  77.9304361  53.7982798  88.1454372  78.6437511  54.4228506
  88.7867928  77.3754978  53.9020872  58.2335718  58.4260021   0.4765495
  58.5515483  57.5785516   0.7879242  57.9024632  58.2488010  -0.4039017
  80.8517170  10.6255579  74.3499994  81.0279083   9.7106773  74.5695019
  81.1131859  11.1138105  75.1306868  56.2348080  91.0704517  38.0242872
  56.2171459  92.0152187  38.1770658  56.5086317  90.6974125  38.8621950
  56.9392538 102.1924686  56.7904711  56.2188292 101.7721367  56.3208485
  56.6446781 103.0933380  56.9242287 101.1128807  33.8231301  84.4122124
 100.7182121  33.1471682  83.8612652 101.9968987  33.9318848  84.0616322
  81.5774441  12.0221162  70.6745195  81.1626816  12.3898983  69.8941660
  82.5162983  12.1174765  70.5142498  90.7901478  53.6296320  37.1091008
  91.3918114  54.3636322  37.2335291  89.9795341  53.9096880  37.5341892
  94.0249062  94.5778370  43.5665798  94.3649864  93.8068104  44.0205526
  94.7407055  94.8538685  42.9941607  22.3144650   7.5018078  47.0251513
  22.6371360   6.7593592  47.5359201  22.1572232   8.1882590  47.6734495
  50.9150696  27.7621746   0.0635809  51.6588831  28.2162547   0.4595371
  50.2411795  27.7684116   0.7433378  46.7955685 101.8747330  73.3886766
  45.9347200 101.8973923  72.9707623  46.9900370 100.9425735  73.4861517
  74.8257351  84.6206856  29.0771604  74.2577600  85.1169014  28.4877563
  75.5264235  85.2316189  29.3052649  69.1993237  35.8460832  36.8787646
  70.0071383  35.4158878  36.5984011  68.5563564  35.6066275  36.2113190
  95.7871723  77.1231508  23.3962846  96.1647606  76.9159365  22.5414610
  96.2492371  76.5495682  24.0076184  35.6805778  -0.0469262  65.6776953
  34.9837613   0.6083010  65.6408978  36.4879751   0.4646861  65.7286453
  59.2528343  87.4854851  43.2104349  60.0908422  87.7020931  43.6191511
  58.5970306  87.8818703  43.7840462  58.4225988  99.0858841  48.7150526
  58.5743141  99.7980976  48.0937958  57.5812960  98.7131786  48.4513664
   9.4695348   9.5876056  51.2449694   9.7657573   9.8693514  52.1104765
   8.5862559   9.9477178  51.1651611  77.7829647  89.8405552   8.8435298
  78.2766056  90.6523037   8.7268597  76.9981956  90.1043987   9.3238968
  33.4394407  85.6143951  37.3266697  33.0714440  84.7328854  37.3879743
  33.0893993  85.9636021  36.5070629  68.0010986  91.2179661  43.6343336
  67.6308060  92.0712948  43.8600492  68.8529444  91.4211559  43.2479334
  31.1843848   8.2081014  20.5365658  30.9311700   7.6899928  19.7725773
  30.8428264   7.7163142  21.2833691  83.4970665 100.1755619  38.5817051
  84.3463230 100.6006145  38.4619975  82.9918766 100.7941532  39.1092992
  79.2231989  57.3203373  39.6270871  79.2416811  56.4635420  39.2007160
  80.1262379  57.6334190  39.5747924 108.9207745   7.8161412   7.4785525
 109.2869282   6.9428766   7.3386639 109.6852112   8.3813894   7.5897449
  86.6739655  91.1862564  31.2555623  86.9067001  90.7409668  30.4408288
  86.5249920  90.4776955  31.8816495  89.8607349 102.3987007  88.9424419
  89.1418648 102.9849243  89.1786671  89.6365452 101.5656185  89.3570995
  21.4401126   0.9801178  49.9284220  20.6924438   1.4700469  50.2707577
  22.0649242   0.9591946  50.6532717   1.7399891  80.4122162  45.2543831
   2.5671589  79.9309540  45.2744675   1.0696752  79.7332811  45.1772451
  77.2406912  88.5615921  34.7466564  77.9442501  89.2014790  34.8551559
  77.6601028  87.7155781  34.9034810  97.0968056  60.7031775  76.9896364
  97.3509407  60.3033829  77.8213930  96.9927311  61.6327953  77.1926355
  97.9853344 104.6123695  49.3568850  97.4058914 104.2932320  48.6650515
  97.7143383 105.5197048  49.4966936  21.7265916  81.0033989  68.2573700
  21.0596633  80.9629440  67.5719500  22.5290513  81.2482929  67.7965879
   9.7282565  33.5447979  46.1642790   9.4580364  34.2814779  45.6160831
  10.0670230  33.9513779  46.9618750  57.8344059  80.9307480  35.4714799
  57.3062897  81.0005379  36.2667489  57.2538900  81.2294579  34.7714806
  75.0941849  64.5609856  47.5185108  74.8222113  65.3986025  47.8935528
  74.5701694  63.9088583  47.9836702  93.5174370 103.0071831  80.0197792
  93.4212780 102.7509308  79.1025448  92.7150249 103.4895134  80.2190971
   8.8414800   3.4051508  68.9410496   9.6715355   3.5414031  69.3978596
   9.0336370   2.7285257  68.2918310  68.1157589  63.9944124  29.1071653
  68.6754847  64.7706461  29.1272879  67.2679329  64.3182945  28.8029885
 109.3192291  89.5213223  35.9128380 109.1217804  89.5683765  34.9774051
 110.2685738  89.4053268  35.9517074  93.7742233  81.3776684  46.6313887
  94.2202091  81.8726540  47.3186398  94.3764305  81.4042664  45.8878374
  13.5770059  11.0862947  36.2553811  14.5109701  10.8777106  36.2762713
  13.1469810  10.2447188  36.1035275   1.5089244  70.7970715  41.8763208
   0.9575777  70.5972004  41.1198187   1.9042283  71.6434860  41.6676521
 104.7875881  18.3972645  14.2374432 105.1370239  17.5651586  13.9184999
 104.5504665  18.8773286  13.4440053  64.9784851  86.0612583  28.6439562
  64.6403980  86.7538929  28.0763364  64.3025446  85.9479141  29.3121552
  83.9179134  94.2105293  80.7932281  84.8741627  94.1846466  80.8271027
  83.6421680  93.3753490  81.1709404  13.4771860   0.7788546  15.0805581
  14.3162143   0.6635065  14.6345127  13.6392784   1.4723510  15.7201052
  56.7492723 101.1693668  71.7115450  57.3712683 101.8802834  71.5567541
  55.9674597 101.4242363  71.2215948  37.6076913   6.5005416  77.4587059
  37.2938538   7.2772437  76.9955969  38.1547022   6.8467957  78.1637764
  98.4421158  99.6883106  12.2806370  98.2584000 100.5916023  12.0226669
  98.0408096  99.1565895  11.5932810  10.8253360   1.3185678  32.3626351
   9.9960214   1.5131497  32.7992201  10.6517410   1.4809012  31.4354110
   4.1945991   6.5051663  65.0688791   3.9460558   5.7163417  64.5869923
   4.9627382   6.2436116  65.5766058  43.9384413  62.2519302  40.2576876
  44.2314005  61.4440441  40.6792688  43.8129330  62.0112085  39.3397927
 105.3173447  60.3115654  69.1917896 104.8968029  60.8449793  69.8662090
 105.7464600  60.9459734  68.6176634  81.7591190  68.3630419  43.6931562
  82.5901031  68.8172102  43.5537481  81.4278126  68.1937265  42.8112268
  85.8203125  93.2247829  11.3831913  85.9070587  94.1202164  11.0562336
  86.4744091  93.1594467  12.0789814  13.6032498  20.2617645  43.0833387
  13.4762907  20.6299710  43.9577150  13.5861182  21.0199881  42.4993563
  54.5597267 100.9446812  55.6636238  53.7002897 101.0847378  55.2661514
  54.7315168 100.0111675  55.5400229  80.6602097  62.9512882  34.3030477
  80.3605366  62.9667616  35.2119970  80.5710602  62.0361328  34.0370083
  95.0859547  96.3323307  24.2265391  94.7196579  95.6065845  23.7212253
  94.3214417  96.7999554  24.5628119  83.7283516   7.6818794  40.6346464
  83.6062717   7.1738017  41.4366341  84.6121788   7.4592125  40.3422546
  71.4947796  70.8517551  74.3026209  71.6494989  70.0035381  73.8868999
  71.3188028  71.4470482  73.5739994  50.0206852  94.3620396  70.2375984
  49.7107267  94.3231964  69.3328094  50.9744167  94.3943691  70.1628733
  74.9238634  60.1474857  41.1026192  75.3442383  60.2948999  41.9498396
  75.6314564  59.8444843  40.5336428  89.8915195  63.7697077  27.3125124
  90.7871342  63.8131094  26.9775248  89.6380234  62.8535128  27.2004414
  71.3048124   8.8641691  61.8689680  70.5411434   9.2672020  62.2820139
  71.9857073   9.5351392  61.9181013  50.4916906  94.3061161  87.8683853
  51.4483833  94.2970276  87.8982544  50.2236938  93.7671566  88.6126518
  17.8436911  21.9423509  48.7795305  17.6121140  22.0251083  47.8544569
  18.5408950  21.2866640  48.7941647  77.6068687  69.7282553  37.4679232
  77.4563646  70.5520821  37.0043612  77.7828503  69.0920639  36.7747283
 105.5845165 103.3735085  12.8610659 106.1429310 102.6581097  13.1653762
 104.7452641 102.9562283  12.6667333  72.0926571  98.6877728  45.5452824
  71.2608957  98.2442093  45.3789759  71.8783998  99.3663788  46.1854601
  32.8746629  20.4461789  51.7871380  33.3933330  19.6553743  51.6393471
  32.6852846  20.7760358  50.9087515  57.3003864  76.8507481  82.5920773
  58.0720663  77.0629263  82.0669842  57.6538801  76.4501429  83.3862972
 101.6979599  87.0012093   6.0521704 101.2424374  87.1026421   6.8878996
 101.2617493  87.6187515   5.4651409  57.4038267  81.1368370  51.4897633
  58.2594156  80.9816837  51.0896111  56.7956877  80.6174660  50.9637833
 104.2828560  82.7981758  41.6246462 105.0624657  83.1200027  41.1720228
 103.5521889  83.2202530  41.1727428  91.7664051  95.2028084  25.7676864
  90.9388161  95.3670883  26.2197280  91.5641308  95.3362942  24.8416758
  90.8413982   8.8056326   7.6465011  91.6821861   8.3513319   7.5926042
  91.0323334   9.6055549   8.1362945  79.6462774 104.4699097  10.6965625
  80.5114174 104.6461201  11.0663056  79.5630407 105.0927162   9.9744689
  83.3240509  96.4332294  39.3831563  82.4521923  96.5371704  39.7643328
  83.6929131  95.6729317  39.8327255   9.1678917  87.0825100  75.6711006
   8.7758589  87.9557514  75.6720924  10.1113141  87.2434902  75.6875229
 104.1983318  96.6069984  32.7411556 105.0621128  96.1988640  32.6815534
 104.3737221  97.4940491  33.0551648  62.0104265  89.0158463  68.6154461
  62.3107100  89.6636200  67.9779148  62.0213795  89.4804382  69.4522667
  75.3915024 101.8730450  17.4188280  74.8407364 102.6119900  17.1602798
  75.7118416 101.5122890  16.5921044  65.8004427  99.7281551  47.8475475
  65.8922148  98.7804985  47.9463530  66.6998291 100.0552654  47.8292465
  73.0103254  74.6678257  71.6804075  72.4059582  75.3553200  71.4005518
  73.1292152  74.1223621  70.9028721 108.8296795  14.4002497  52.0656824
 108.6885071  14.0444112  52.9429960 108.1618595  13.9777684  51.5255404
  23.1798840  16.3015950  38.7152433  23.0527735  16.5595520  37.8022623
  22.3204350  15.9888172  38.9976406  11.9126773  10.9400094  61.0192442
  12.4610877  11.0511708  60.2426338  11.5775096  11.8175006  61.2033701
  94.4902325 100.3999138  42.0670605  93.6760521 100.0711632  41.6859198
  95.1775169 100.0583076  41.4950705 111.8036461  67.3757029  73.0770302
 111.2955189  68.1533861  72.8462887 111.8767262  67.4116278  74.0307570
  78.2009602  91.8633747  48.1587362  78.3995056  90.9544182  47.9337740
  77.4831295  92.1037865  47.5729370  87.8179359 105.8221245  73.2100582
  87.1227455 105.2669525  73.5632181  88.3918095 105.9917068  73.9571428
   4.3248111  39.6365547  46.1566401   5.0671315  39.0670013  45.9546423
   3.6728239  39.0521407  46.5434313  21.5841413  17.5398564  18.4303665
  20.8012533  17.4734449  17.8836417  21.7719078  18.4777486  18.4668970
  91.0146904 105.5688286  17.7287698  90.5448532 104.7884464  18.0228484
  90.5370998 106.2987041  18.1230092  12.5445664 102.7976894  61.6369438
  12.4117017 103.7419128  61.5531683  13.2842541 102.7123356  62.2384453
  86.8835163  87.2452259  38.1382561  87.1234417  87.6874638  37.3239541
  87.7153397  86.9359112  38.4969068  36.2541842  51.0527897   1.7160182
  36.5417790  51.5976763   0.9834756  35.7934713  51.6573572   2.2978039
 107.8142262  91.0633087  62.2429991 108.4735584  90.4591274  62.5843000
 107.0460606  90.9162140  62.7948284  73.3506155  93.4910011  22.3103905
  73.7526560  92.6782036  22.0038700  72.7815628  93.2199287  23.0307579
  24.6103430   8.9962614  45.6585312  24.9224424   9.1659588  46.5473700
  25.1364112   8.2554859  45.3573084   4.7648668  30.1972365  49.6600866
   4.5731002  29.2981052  49.3935871   4.3632174  30.7391691  48.9809513
  74.2294359 101.0317993  78.8838768  74.9346924 100.5527878  78.4486866
  74.5133066 101.9457436  78.8647509 107.3235130  18.8461196  40.4604578
 107.9833508  18.6507869  41.1258173 106.6668987  19.3689966  40.9205580
  63.8642073  96.2592983  59.2719793  63.9374924  96.7987823  58.4846973
  64.3637133  96.7349815  59.9356461 102.7815723  24.6697140  61.1578226
 102.3590946  25.3968263  61.6150522 102.2711277  23.8999033  61.4089632
  62.6477575  89.3846989  71.3112164  62.6636314  89.8722363  72.1347952
  63.3615828  88.7522984  71.3934565  52.7162647  23.1795454  51.4091539
  53.4747839  23.7359571  51.2322855  53.0848265  22.3052192  51.5354395
  60.7634974   5.8528453  44.8506403  60.2508497   5.0454706  44.8110104
  61.6077232   5.5830121  45.2121687   6.2377608  11.7907417  28.6017299
   5.3236872  12.0233500  28.4386516   6.2219691  11.3319433  29.4416642
  16.8419933  38.7713861  46.6664314  17.0292091  38.1931639  47.4059153
  16.5407407  38.1839418  45.9733295  53.2754278  96.0270786  34.8492956
  53.4731960  95.1794624  34.4509840  52.6831245  96.4511585  34.2283511
  85.8526897  11.8062377  49.7578192  86.0839939  11.6393518  48.8440990
  86.6796589  11.7248571  50.2329302 104.1049385  23.9151764  47.8620338
 103.4928608  23.4136868  48.4006548 104.0166759  23.5393190  46.9861507
  23.3908224   6.2970716  23.7547135  24.1351533   6.8385404  23.4920049
  22.7128887   6.4916134  23.1075716  89.4515133  95.1010323  56.3980770
  89.3719196  94.3114185  55.8629179  90.2821159  94.9935627  56.8615198
 104.1453362  78.2739115  70.6820774 105.0596428  78.4801197  70.4877996
 104.0012550  77.4189043  70.2765608  12.0395017  24.8145270  30.2036309
  12.8639424  24.3822312  29.9808121  11.6024423  24.9450874  29.3621063
  74.0382290  67.4048901  20.3655696  73.7111425  67.2648287  19.4769597
  74.7253370  68.0639458  20.2667689  15.1415312  31.9820166  36.5015173
  15.0649416  31.2033749  37.0529556  14.3446863  32.4813652  36.6801834
  21.8136287   2.0958501  23.9579844  21.4240026   1.2689929  24.2421174
  21.3326025   2.3267007  23.1632805  89.7392845  75.0663900  59.0186071
  89.7437477  75.3087187  59.9446106  89.0969086  75.6537724  58.6204052
  93.2332516  78.0954599  22.3790288  92.6480293  78.8214922  22.5949764
  93.8455105  78.0546904  23.1136751   5.8710279   0.5293817  27.3983979
   6.0453882   1.4210958  27.0972872   6.7108621   0.2238244  27.7412319
  88.3752823  84.4587994  30.6447554  88.6424255  83.9110661  31.3828969
  87.7363682  85.0668621  31.0166073 110.0602913  79.8898220   5.9002268
 109.5562553  79.3287134   5.3108716 110.6514645  79.2898035   6.3548881
 104.0411949   5.6669235  44.7622204 103.7608528   5.1907933  45.5438519
 104.9325275   5.3578329  44.6003151  23.7645793  91.0719585  42.1737337
  24.0892553  90.2681446  41.7679024  22.8790522  91.1753941  41.8253422
  89.8451233  98.0398083  55.8251047  90.1742458  98.3728695  56.6599607
  89.7676277  97.0950413  55.9579563  72.9688168 100.0553799   8.9769822
  72.6191425 100.8439827   8.5621744  72.6030588  99.3335438   8.4656978
  68.9646149  92.9014206  71.5057325  69.3699265  92.1530533  71.9437933
  69.6539164  93.2502842  70.9405851  90.0491524  84.9345207   8.5610789
  89.5214939  84.1387272   8.6283445  90.1761723  85.2150059   9.4674057
  19.3352318   0.9586296  41.3993311  19.5766580   1.8300432  41.7133141
  20.0090003   0.3801490  41.7565823  28.9106345  15.6009901  87.9807281
  28.1511402  15.0354040  88.1204033  29.6589112  15.0041664  87.9914474
  32.5819254   1.6860271  47.9736090  32.5074983   1.0821652  47.2346592
  32.9054213   1.1446594  48.6936808  39.9469161  19.5700240  51.3741112
  40.2995825  19.9679363  52.1700525  40.5866241  19.7848451  50.6952429
  31.9149971   8.6391127  73.3350277  32.1107483   9.1082162  74.1461086
  31.4693356   7.8417522  73.6210966   6.6274905  96.1482811  75.4578161
   7.0933986  95.4260540  75.8791780   6.0960186  96.5303421  76.1562443
   0.5797260   8.2874650  32.2105074  -0.3548802   8.0979967  32.2932386
   0.9449590   8.0704081  33.0682516  12.6222408  28.3366370  45.8248758
  13.5388362  28.2399845  46.0832214  12.5529909  29.2419600  45.5218458
  79.7055817  94.3058872  75.3354359  80.3627872  94.8311615  75.7919407
  80.0763988  93.4236813  75.3144932   8.0595928  12.5553405  22.1415043
   7.7891386  13.3481193  21.6782689   7.3993546  11.9034457  21.9062376
  10.3695440  13.1608284   6.2306982  10.8272231  13.9500070   5.9409404
   9.6791029  13.4834003   6.8098962  10.0894427  26.6468358  90.6042004
   9.8275173  27.5453091  90.4032707  10.5768108  26.3609576  89.8315620
  57.9616642  93.7860489  44.2559528  57.8410053  93.6862755  43.3116436
  57.4172688  93.0992413  44.6408606  95.7385540  98.2623768  15.4434133
  95.6884098  97.5642395  14.7904813  95.0661945  98.8890553  15.1761103
 101.8114567  82.0871353  38.6245465 102.3259640  81.2814617  38.5756707
 102.4641037  82.7850723  38.6807680  15.9359300 100.8100700  81.9898319
  15.2238512 100.2818775  82.3506546  16.6728580 100.6541157  82.5804615
  29.7385144  19.0824783  81.4665127  28.7939930  19.1947949  81.5737534
  30.1235580  19.6142185  82.1630955  83.4639072  80.4164124  63.2346678
  83.9949226  81.1631966  62.9579306  83.7738800  79.6890640  62.6951170
   9.4801253  28.8179731  35.8586431   8.6560112  28.6488700  36.3152313
   9.9389935  29.4454575  36.4171529  18.7972248   2.0636010  15.3494644
  18.7377131   2.0967844  14.3946922  18.5399687   2.9399028  15.6360757
  88.6783123  97.3114014  76.3480043  88.1239605  98.0700016  76.5309334
  89.5660400  97.6104450  76.5448284  32.2724247  19.1983759  28.0447292
  33.0410099  19.1400850  27.4771810  32.4461651  19.9537528  28.6063814
  64.9646091  97.3637676  61.4678812  64.4640255  97.2720814  62.2785807
  65.8699751  97.1882629  61.7242765  68.5705805  93.7694931  53.8930511
  69.0957260  94.2343712  53.2416296  68.4107971  94.4178391  54.5788670
 107.1198368  96.6384220  26.9988513 106.4165688  96.6466999  27.6481462
 107.8766632  96.9989395  27.4608922  42.8513098  13.1335282  39.2068076
  42.5022316  13.5780549  39.9793172  42.1335411  12.5759649  38.9065313
  88.4073257 105.7564545  48.9584541  87.6526260 106.2954140  48.7214088
  88.4832001 105.8547783  49.9075651 101.1203671  77.9331017  80.6579494
 100.5335522  78.5110950  81.1456013 101.9991302  78.2380533  80.8838272
  75.7317162 103.0366421  59.8634768  76.6536379 102.9295635  60.0976324
  75.5224323 103.9349937  60.1192141  11.4265275  30.9147739   8.3023947
  10.7244492  30.3220224   8.5706580  11.3019621  31.0223365   7.3594493
  49.7114038 104.5932674  28.0518174  50.4164791 105.2139854  28.2356930
  49.4439602 104.2725658  28.9131260  85.7654285  55.5607367  57.1709251
  86.4173031  55.1197815  57.7157593  85.1864529  54.8584890  56.8745041
 108.2422352  96.8638706  46.7731762 108.9781857  97.3311329  46.3778639
 108.0487537  96.1570168  46.1574173  78.1416559  95.9029007  40.9742165
  77.2984076  96.0423279  41.4051771  78.7030888  96.5989399  41.3156080
  81.8762589  81.7480755  57.0804501  81.8407631  80.8096027  56.8954039
  82.5781441  82.0765972  56.5186119  17.5081670   8.0806333  57.6307344
  18.3577776   8.5199529  57.6680470  17.2460926   8.1436157  56.7122650
   6.9924295   8.3454335  49.4855261   6.6023338   8.8422304  50.2047300
   6.2565273   8.1417501  48.9083004  25.8415055  23.2302403  62.2170210
  25.8945966  22.2772813  62.2896767  24.9871612  23.4514809  62.5876665
  15.3206742   5.2048004  73.5550642  15.6209052   4.5806834  74.2157984
  14.4963408   4.8376423  73.2358456  98.7720490  95.4585838  52.5331545
  98.4700298  94.7931480  51.9149160  99.6879387  95.6063652  52.2974825
  73.4479237 105.5833626  27.5694942  73.8667917 105.2726841  28.3721566
  73.8743305 106.4203072  27.3852992 106.5676594 102.7547455  69.8487616
 106.6244411 102.3546410  70.7164717 105.9867191 102.1755695  69.3555069
  87.1071625  40.3709412  19.2003036  87.5931263  40.1492023  18.4060073
  86.4576244  39.6731424  19.2863441  78.9008379  82.9218674  50.6135178
  78.6147785  83.3388901  51.4262247  79.6374464  83.4561348  50.3165483
  82.8349876  76.1415577  27.5073314  83.5692501  76.3562727  28.0826569
  82.4134827  75.3914547  27.9267359   3.9789146  23.4688425  22.1801567
   3.9561740  23.1438136  23.0801964   3.8109654  24.4077826  22.2602677
 111.6538008  89.4388771  39.4644237 112.4824197  89.6991062  39.8667955
 111.8989261  88.7767982  38.8180447  28.1940079   2.5207412  32.9639721
  28.1913471   2.2687989  33.8874173  28.0423594   3.4658080  32.9731107
   0.6595181  17.0453691  66.1294985  -0.2729916  17.1669686  66.3080215
   1.0177454  16.7041123  66.9489145 110.8962631   6.4794642  11.8853986
 110.1498222   6.8087512  11.3847601 110.5217934   6.2090153  12.7237678
  58.3362007  68.2067060  59.1338587  58.2533503  67.2842216  58.8922071
  57.4956751  68.4252882  59.5363140  83.3236217  70.5745649  55.7093954
  84.2713356  70.5848694  55.5753851  83.2138538  70.3139544  56.6238689
  14.9992859  12.0314598  31.2398982  14.7924066  12.0275509  32.1744680
  14.1935301  11.7374444  30.8149934  87.7133656   0.6687904  53.3801985
  87.3539639   1.3062865  52.7632189  88.5904408   0.4804695  53.0462885
  11.3678193   9.7657835  19.3394792  11.2594283  10.6474257  19.6961176
  10.9026325   9.7868484  18.5031843 100.3115177  91.9623470  38.7663245
 100.1644802  92.0793247  37.8277493 100.3141689  91.0134220  38.8918972
  37.5695729  18.4409809  46.6345024  38.3705282  18.9502192  46.5104914
  37.2726107  18.2416391  45.7466316  47.1208239  31.8743706  46.4979410
  46.5514755  31.9299984  47.2653961  47.0445204  32.7323222  46.0804176
  34.0912533  30.4625845  34.5758224  34.8806930  30.6304932  34.0612125
  33.4580421  31.1073637  34.2603278  80.2027798  93.8167477  86.0143089
  80.2376938  93.9452076  86.9622040  79.7297668  94.5814991  85.6862259
  58.0933046  76.0545969   8.3817941  58.3011484  76.0536480   7.4474323
  57.5282049  76.8179846   8.5006851 106.5925598  17.6750553  74.4779491
 107.5288677  17.4888968  74.5479870 106.1694908  16.8254876  74.6023464
 102.1999741  10.9828758  54.0313196 101.2879562  10.6922448  54.0314722
 102.1692467  11.8683052  54.3936777 102.2535133 101.8532753  45.5832529
 101.8549538 102.4278927  46.2368631 102.7567768 101.2205124  46.0956621
  89.0983200  89.7174358  28.4153342  89.7828102  89.7478771  27.7469206
  89.2628193  88.9024639  28.8896728  76.1014938  99.1049290  67.7582169
  75.9620047  98.8827896  66.8376589  75.3957510  98.6550808  68.2227516
  59.4683933  99.0350533  34.0933728  59.9910545  99.8270226  33.9675140
  58.5614347  99.3399715  34.0672684  53.0520010  14.6127486  42.4396849
  52.9705191  13.6740470  42.2710657  52.7634048  15.0280190  41.6269779
  97.9546738  97.7084446  49.6342993  98.6438942  97.4367332  50.2404118
  97.3026943  97.0093822  49.6840429  47.3704767   7.6274145   5.0872356
  48.2076597   7.9995918   4.8100370  46.7137241   8.2339877   4.7452143
   2.0765558  95.3522301  20.0219131   2.6566303  95.0074768  20.7008028
   1.2127174  95.0066376  20.2468204  22.5735426 104.7192192  72.3475504
  21.9921112 105.3637314  72.7510023  21.9947720 104.0003586  72.0935869
   3.9273274  73.7861013  63.2062197   4.6956563  73.7631655  63.7766361
   3.7941521  74.7157335  63.0210590 112.0843315  68.7033844  29.7501540
 113.0327415  68.7887764  29.6529078 111.8248177  68.1040287  29.0504026
  15.1569951  62.1251774  27.9875898  14.9656808  61.3167715  27.5120783
  14.4266832  62.7064228  27.7753878  92.0053482  80.1430702  19.0824831
  91.0743141  80.1195908  18.8614404  92.4405766  79.7445917  18.3288074
  32.8884602  83.5090637   5.1798481  33.4453440  83.1897926   5.8898997
  33.0333853  82.8895283   4.4647285  52.8417110   9.8083103  54.4681549
  53.2359934  10.6805313  54.4699621  51.9346333   9.9560547  54.2005396
  39.2869520   9.3405962  26.1196661  39.1269207   9.9501890  25.3992367
  39.3966436   8.4902817  25.6940341  59.1115761   7.8809595  21.7023444
  59.0628004   7.9022431  20.7466245  59.6184206   7.0930898  21.8988156
 110.2608395  94.3478870  49.8633862 109.5602512  94.9979401  49.9167871
 110.6212044  94.4559002  48.9832211  54.3034506  65.0811434  87.2311687
  53.9560223  65.1326418  88.1216049  53.6832428  64.5213079  86.7640877
  49.9692106  30.1604176  48.8611221  50.6010723  30.4559588  49.5165920
  49.4047356  29.5472956  49.3319511  18.1888485   9.6258116  80.4129410
  17.2677314   9.3699288  80.3649902  18.4250903   9.4991785  81.3318443
  91.6820621  81.9900513  49.8355722  91.9234753  82.8189945  49.4222784
  91.6434193  81.3641644  49.1123819   9.4873750  67.1170902   2.3116019
   9.6629173  67.8177118   1.6834727   8.8861126  66.5298271   1.8535204
  60.0588274   6.0283834  56.7106915  60.9040642   5.6336838  56.4961815
  60.2733231   6.7420977  57.3113918  94.6222878  91.5639305  19.3124104
  94.0934372  92.2092915  19.7815037  94.1652870  91.4387131  18.4807241
 102.8876019 102.6891899  43.1537247 102.9675388 103.5923386  43.4606075
 102.4635792 102.2271442  43.8768768  55.7708120  32.1095800  84.9982166
  56.4944744  32.3584723  85.5731964  56.1932468  31.6846466  84.2517567
  30.9277415   6.1243057  45.6317282  30.6539750   6.2871546  46.5343714
  30.4884148   5.3084612  45.3916836   3.9409173  26.5513635  12.1779060
   4.0852988  25.6399632  11.9234776   4.7801667  26.8345547  12.5408030
  25.4951859  40.4811764  12.5557792  24.7634459  40.7823563  13.0943656
  26.0956597  40.0686216  13.1766367  54.5367670  25.7179427  13.9994979
  53.8619661  25.0392675  14.0162659  55.2194452  25.3914523  14.5856631
  17.0478630   2.4560621  26.0674214  16.5017939   3.2414162  26.1029077
  16.7547655   1.9958851  25.2809334  11.3307273  30.0643516  18.7067854
  11.7278957  29.2611289  18.3701515  11.2794518  29.9279332  19.6528256
 101.3282490  93.4810543  12.7190924 101.6569519  92.6098156  12.9407215
 102.0946884  93.9490700  12.3877692  62.7610779   3.7879333  34.2896223
  62.5554085   4.4971234  34.8987055  62.0535898   3.1548145  34.4114995
 112.3001376  89.4221497  36.0087991 112.6519919  88.9248276  35.2704906
 112.2165127  88.7789345  36.7127323   6.3029736  91.1126232  36.5760255
   6.3939750  91.2724113  37.5153971   6.7968559  90.3074551  36.4210820
  16.6842961   3.6436594  14.6423042  17.3983455   4.1338879  15.0497854
  15.9519243   4.2596546  14.6219611  90.9615517 103.0216312  24.7208357
  90.9666252 103.8433552  25.2117252  91.6042137 102.4712753  25.1684189
  22.7622318  41.1610270  44.4717503  22.4116802  40.3458738  44.1127682
  23.6860824  40.9724092  44.6365404  65.7208824  15.0396228  52.6303768
  66.3941765  15.6708562  52.8842449  65.0306940  15.5717921  52.2345686
  79.6823454 100.0003052  47.2247982  79.6508741  99.9107075  48.1772757
  79.9935532 100.8935833  47.0784140  66.1721373  95.4528046  26.4164066
  65.9359837  96.1639214  27.0120311  65.4946566  94.7906303  26.5534663
  38.3348513  14.8312640  53.4104061  37.7308297  15.3911304  52.9226160
  39.0434361  15.4175079  53.6758471  36.4768767   8.7105715  20.9892130
  35.5405593   8.6287373  21.1704469  36.5529823   9.5190555  20.4824662
  28.5439038  14.8601282  28.5850239  29.3864369  15.1658070  28.2489777
  27.8946900  15.3860271  28.1179214  34.5674109 101.0896301  49.6846724
  33.6792135 101.4355373  49.7723389  34.7769523 100.7448959  50.5527067
  60.0887156  18.2122612  61.3358164  60.3380156  18.7343931  60.5732775
  59.5217323  17.5270462  60.9819174  97.3814869  90.2432156  71.6749954
  97.4968624  89.3907928  72.0948696  98.2393742  90.4440308  71.3009262
  19.0423834   2.7509058  49.8954201  18.5871768   3.5292751  50.2166080
  19.5227671   3.0550525  49.1253853  25.6501818   1.2690379  21.4405489
  25.0680494   0.6122423  21.8226147  25.6626987   1.9798523  22.0814991
  44.5335197   4.4350043  33.0911160  44.0163231   3.6627871  32.8621602
  44.3616676   5.0566876  32.3838615 111.7560959  88.4649372  43.7120676
 112.1667957  89.3294621  43.6994791 111.7886639  88.1710243  42.8016949
  31.1777687  91.7800140  21.0735703  30.7616377  92.4922085  21.5592170
  30.5498385  91.5605736  20.3852510  43.4487820  68.2727003  35.3747272
  43.1317425  67.4174690  35.0843883  43.6290073  68.1572294  36.3076878
  44.4761038  29.6017671  23.0733109  44.8922253  30.4478717  23.2381845
  43.5399628  29.7981930  23.0374622  14.9481153  73.2060480  58.0174208
  14.5043564  72.3946476  58.2642746  14.6276808  73.8545656  58.6442995
   1.3976134  96.6012859  71.5565062   1.7627336  97.4458885  71.2927485
   2.0872274  96.1958790  72.0821571  72.0206785  87.4234676  60.0303364
  71.0828066  87.5880623  59.9326849  72.4405909  88.1511974  59.5717287
  92.0808697  98.2613754  61.2573481  92.0815945  97.3053265  61.3042212
  92.2518349  98.5453320  62.1553278  51.0626698  17.5879216  29.1839647
  51.3209391  17.0781302  29.9518466  51.7506313  18.2470131  29.0915775
  97.1084309 103.3232880  30.1099706  97.1457958 104.2534161  29.8870206
  97.0555592 102.8764248  29.2651367  32.0603776   4.7446072  62.1018267
  32.9424524   4.7456640  62.4735403  32.0356488   5.5203009  61.5415382
  18.7563312  29.6075559  22.9512405  17.9816890  29.4353557  23.4865046
  18.9841914  30.5167818  23.1451964  44.0886021   5.2253747  15.7159722
  43.2822561   5.0977975  15.2162087  44.0252352   4.5988724  16.4368820
  62.4735069  29.9994969  61.2674284  63.4000874  30.0544643  61.0336494
  62.4452639  30.2415872  62.1930790   8.6128402   4.8283422  23.8212705
   9.2110670   5.1821762  23.1631231   8.3584559   3.9718246  23.4779072
  25.0369883  36.5317321  14.1214621  25.4113698  36.6237450  13.2453322
  25.5928373  37.0772457  14.6779490  50.4280710  19.7919631   7.5827974
  49.7219276  20.0002718   8.1945169  50.9984827  19.1967320   8.0691713
   6.7707741  31.3888001   4.9359715   6.2569571  30.6642962   5.2927899
   7.3543757  31.6433549   5.6507039  80.0927448  22.3652315  17.0674598
  80.0075245  22.6404190  17.9802799  80.9841824  22.0226049  17.0028150
  59.5807695  39.4570088  75.6047583  58.9809084  39.0655518  76.2397051
  59.8590469  38.7245131  75.0549889  45.8166885  40.8711910  19.6078742
  45.6541586  41.5616131  18.9651203  46.6418219  40.4740000  19.3292630
  46.8774843  98.1357670  50.0076103  46.5163612  97.3861217  50.4807520
  46.2712431  98.8522720  50.1955748  61.4884186  45.4037571  32.1741104
  61.1733150  44.5497990  31.8779612  60.7963085  45.7276964  32.7505517
   6.3695413  98.5117435  57.7409554   5.4903418  98.7038517  57.4148655
   6.2271023  98.1539631  58.6172771  14.6144450  99.8463917  16.1740875
  15.2225399 100.4355717  15.7276285  14.7558558  98.9960289  15.7580113
  48.0743217   3.5746446  50.4720879  48.8742495   3.1488535  50.7803917
  47.8339529   3.0898139  49.6825361  65.3018856  38.6545753  91.4260674
  65.7321453  38.5533810  90.5770302  66.0085440  38.5627198  92.0651436
  28.1527877  95.0304127  36.1836076  28.3893728  94.3487358  36.8125486
  27.3866725  94.6809196  35.7284689  98.2725430  89.2230415  90.8142185
  98.0591106  88.3909225  90.3920078  99.0460682  89.5375824  90.3462887
  45.7320309  11.7516518  55.9032631  46.0289812  12.4444997  56.4931870
  45.1570559  11.2083244  56.4421797  21.9265485  47.3052835  30.9904885
  21.9506955  47.2360706  31.9448781  21.3973689  46.5587854  30.7095218
  63.3163404  13.8197041  27.4487114  63.9471436  13.2007396  27.0810080
  62.5147820  13.3081138  27.5582862  16.8623388  86.6138172  31.0334587
  16.2150025  87.2442913  30.7177305  17.5885713  86.6856575  30.4140568
  54.6382952  10.1219559  22.3139334  55.0615931   9.3209648  22.6229072
  55.3623915  10.6863499  22.0430541  16.9685519  46.6413355  15.5626118
  17.0464909  47.5875902  15.4411268  17.6708901  46.2724400  15.0270092
  63.4677839  32.3834491  22.2355247  63.1586266  32.0872402  21.3794208
  64.2786074  31.8954802  22.3793483   4.5390275  96.5824318  29.9064732
   4.8704600  95.6879044  29.8277044   4.5672983  96.7665195  30.8453798
  11.1935890  21.0202527  36.2886858  10.3706002  21.3488197  35.9267950
  10.9969831  20.1216555  36.5534520  49.2715502   9.6681505   8.1596023
  49.3688679  10.0928032   7.3072922  49.6354246  10.2965677   8.7832379
  27.4093652  32.6703000  39.0167117  26.9840527  32.3692417  39.8196483
  28.3094716  32.8620911  39.2798829 104.6309376  64.5651484  26.4322066
 104.8057842  64.4346046  27.3642039 104.0592575  65.3322411  26.4009094
  87.3040867 104.2723942  36.2437701  87.0695877 104.6083832  35.3786969
  88.1063843 103.7714481  36.0967422  35.0601077  36.4735317  66.5857124
  35.9358811  36.0940146  66.5134716  34.9628401  37.0037293  65.7947254
  26.5074205  34.9551177  37.7108431  25.7051158  34.8292279  37.2041988
  26.7282295  34.0804911  38.0310106   5.5742657  97.3538780  77.7047968
   4.8851478  97.9690075  77.9557276   6.3689721  97.7090454  78.1029510
   4.7597066   2.8060460  26.6282439   3.9444518   3.3074284  26.6138363
   5.3712833   3.3572504  27.1164846  39.2339778  37.4062467  14.7756767
  39.4053340  38.2929468  14.4584513  38.9780688  36.9173360  13.9935589
  54.9485588  24.8949504  72.9472113  54.9311733  25.4902387  73.6965895
  55.0508118  24.0255094  73.3343172  79.8999691  81.5136719  53.7050152
  79.0630293  81.0627460  53.8164997  79.7407150  82.3987389  54.0329266
  11.9376063  61.5644264  51.2522030  12.0524657  62.4469328  51.6046476
  11.1367798  61.6172028  50.7305479 107.2747231 103.9834785  47.5352383
 107.3738670 104.5729733  46.7876434 107.4115658 104.5419979  48.3004570
   5.9308898 102.9587269  53.6523867   6.7118728 102.6752472  53.1770658
   5.5680877 102.1525669  54.0194130  13.8291061  26.8204284  16.4544141
  13.5538983  26.1254191  17.0522881  13.1331372  27.4750948  16.5116227
  39.2743897  11.0609078  63.7423801  39.7938514  10.9706032  62.9434824
  38.4958839  11.5457439  63.4683466  71.4159822  72.8739405  88.2791328
  71.0165262  72.0851469  87.9124355  71.8678093  72.5698376  89.0662861
  85.7192707  33.9536595  24.2145514  86.2477875  34.6522498  24.6003938
  85.8301258  33.2126212  24.8102093  61.7562675  37.6890993  30.2481055
  61.5136528  37.8607726  29.3382168  60.9209633  37.5728345  30.7008600
  44.2631388  11.8453264  53.5539198  44.4064426  12.7869248  53.4585857
  44.8780680  11.5773964  54.2367887  22.3833919  39.1323018  67.4043512
  22.7956390  39.9817586  67.5615358  21.5857983  39.3395901  66.9174147
  30.7206631  54.4019079  38.1231213  30.8244658  53.6592627  37.5281954
  30.8525372  55.1720190  37.5701594  41.5487242  12.6396430  11.2998438
  41.6850233  11.6929793  11.2613428  41.9806576  12.9110706  12.1097755
  18.7978780  15.1743948  35.8239317  18.1481516  14.4976401  35.6339574
  19.1916323  15.3735733  34.9745107  39.0723348  11.1631167  47.8841209
  38.8779831  10.8922291  46.9868612  38.2257891  11.1391425  48.3302355
  28.5557342  41.5908718  42.7295542  27.5999331  41.5558052  42.6915121
  28.7504721  42.4707890  43.0521345  62.4241734  20.0009060  44.3498659
  62.3941183  19.2047608  43.8193178  62.4149561  20.7143974  43.7118435
  25.8790684  14.1603875  18.4436679  26.7868567  13.9320564  18.6437058
  25.7967424  14.0118623  17.5016510   1.7819674  12.3802042   4.8178816
   1.0324070  12.6744258   5.3353995   1.4255276  11.7018473   4.2442840
  39.3466210   1.1914776   5.9695929  38.4430742   1.5070617   5.9851766
  39.3483591   0.5028189   5.3047788  63.0966377  10.6377196  19.5430458
  63.1398392  10.5983436  20.4984593  62.1601534  10.6615186  19.3464112
  20.5703545   3.4781566  25.7925606  19.9246490   2.9815730  26.2952566
  20.9107137   2.8512001  25.1543498  42.8312874  36.3632512  35.7018638
  42.7050972  35.6166410  36.2874269  42.6378965  37.1281219  36.2438989
  56.0960293   8.5124725  34.5718861  55.5278635   8.4016287  33.8095641
  56.7901373   9.0984523  34.2700982  76.8708992  92.9213142  27.9578400
  76.1388016  92.8838539  27.3423243  76.5524673  92.4652004  28.7368107
  18.8849556  96.6332531  45.7928801  17.9377091  96.5468216  45.9000444
  19.1841435  95.7482529  45.5843496  17.4287570  17.4960184  63.5464382
  17.0905662  18.0307841  64.2646933  17.6545489  18.1274724  62.8634214
  42.0731354   0.2741346  32.8749228  42.6245594   0.8089034  32.3037958
  42.0463753   0.7559091  33.7016106  56.0526037  37.1213102  54.5471525
  55.9609079  36.4729118  55.2452946  56.7510271  36.7768431  53.9905739
  27.6646495  18.4182644  20.3016901  26.8843627  17.8881919  20.4641891
  28.3941293  17.8584886  20.5676651  94.9795723  67.1868229  76.0623741
  94.6859074  67.9040146  76.6241789  95.7075882  67.5565529  75.5628443
  90.3065872  69.4810104  24.6412349  89.6050262  70.1244688  24.7412729
  89.8723316  68.7069988  24.2826796  37.4261451  23.7926531  34.0542221
  36.7890573  24.0678763  33.3949780  36.9694352  23.1234765  34.5639777
  27.8697968  49.3194056  21.0732746  27.8200936  49.9096346  20.3213453
  27.7304316  49.8859644  21.8321037 112.2330189  32.8011727  28.7428284
 112.1492004  33.3952141  29.4886971 111.8915939  31.9659472  29.0622997
  37.1953321   8.1493521  31.2925768  37.9785872   8.4401578  31.7596698
  37.3396492   7.2152650  31.1412978  43.7907887  44.7703218  28.6966848
  43.8160610  44.3303204  27.8469849  44.3553448  45.5354977  28.5870552
 108.1974888  85.9072495  20.5029869 108.1817245  86.3146114  21.3690352
 108.8841248  85.2430630  20.5631757  42.0555687  49.8102856  42.3230076
  42.5210524  50.3271055  41.6653967  41.9049358  48.9647102  41.9004679
  31.2073803  37.3856330  54.8328876  31.1412668  36.4714718  54.5569038
  30.5170131  37.4886060  55.4878855  93.2384396  96.2333012  28.5323524
  92.9422760  95.7416630  29.2983913  93.1540680  95.6169415  27.8048801
  37.2690105  18.8864458  61.5480661  38.1598926  18.6151183  61.3268375
  37.2804880  19.8396552  61.4615154  37.2573304  10.9649086  42.8483105
  37.0840931  10.4443669  42.0639277  36.4511704  11.4613998  42.9891491
  24.3932557  24.8874521  47.0481873  25.3217602  24.9624014  47.2683907
  24.2878032  25.4303575  46.2669277  27.1760106  26.9568801  48.8469934
  27.1622181  26.0455990  48.5544062  27.3101592  27.4635863  48.0460691
  40.7016993  36.0260820  61.2387180  40.2034855  36.4186335  60.5218410
  41.0603523  35.2198482  60.8677864  49.9126673   5.5080664   7.7054149
  49.7318172   4.7718763   7.1209925  49.3611479   6.2172300   7.3750418
  17.0867169  26.4496660  71.7547035  17.7776647  27.0482492  72.0384693
  16.2924290  26.9838357  71.7540216  66.9612885  21.4492822  66.8462992
  66.3953304  21.7959571  66.1565590  66.7071915  20.5297875  66.9250298
  97.4940681  16.3209176  31.0879683  97.5196934  16.9566882  31.8030691
  98.3975506  16.0153961  31.0066223  43.3512259  25.5342078  52.5939989
  43.0659914  26.0288811  51.8257761  44.1836023  25.9363508  52.8423166
   9.4863945  79.9068213  39.5532417   9.9395192  79.1160345  39.8457599
   8.5988218  79.8164368  39.9000525  75.1179504  83.9761543  40.3959322
  74.5274210  84.6759129  40.1169348  75.9214783  84.4288063  40.6522226
  40.5128193   8.7576246  68.7422466  40.7981491   9.0250373  67.8685713
  41.3137674   8.4638691  69.1763258  10.8058405  78.3164644  33.5706496
  10.1988709  78.3013201  32.8306580  10.4802263  79.0191603  34.1331649
  49.5824051  25.7604265  21.5561938  49.4428015  25.3930569  22.4289966
  48.7005043  25.9092021  21.2150860  38.4714127  36.0614824  12.4395764
  38.8856626  35.6820345  11.6645622  37.7034974  35.5113864  12.5942647
 111.0386276  97.0071220  34.7822857 111.3330460  96.1010456  34.6896458
 110.7379532  97.2519207  33.9071298  92.1436024 100.7113457  44.7651815
  92.2712231 101.4115524  45.4052305  92.9392338 100.7252121  44.2331886
  20.1254773  84.2860794  36.2895632  19.9884593  85.2248383  36.4167476
  19.6737289  83.8759995  37.0271230 100.3695488  94.9990463  88.3984947
 100.6836128  94.5330048  89.1733456  99.5272064  95.3670788  88.6653996
  69.2158985  29.0088964  13.2009077  69.5543909  28.1639743  13.4971559
  68.6075640  28.7891316  12.4953127  91.0078335  99.0788460  16.3848150
  91.7455196  99.4541264  16.8656540  91.0158443  99.5322514  15.5418515
  64.8306370 103.2277584  37.0303893  64.0927267 102.6270103  37.1344543
  65.4857111 102.9126167  37.6531219  44.4478607  15.0979936  65.4518080
  44.9125814  15.4418111  66.2147379  45.1342583  14.9436605  64.8027563
  49.6531963   4.7217831  41.9257736  49.1568613   5.5306631  41.8008900
  50.1547670   4.6212107  41.1167288  99.6853828 102.9557896   8.8618863
  99.7969055 103.5642338   9.5923615 100.1766300 103.3525753   8.1425327
   6.2355250  95.2421284  21.1188102   6.5168488  94.5966339  20.4704046
   5.7556218  95.8971977  20.6120443  95.4147148  85.1366997  40.3635025
  94.5264530  84.7801399  40.3533649  95.5531502  85.4601097  39.4732904
  59.8472261  35.7640076  31.2100816  58.9837408  35.3868222  31.3784695
  60.1708508  35.2891922  30.4445434  27.4826574  74.6292210  27.9319644
  28.1804037  74.4682312  27.2967744  27.2377324  73.7582970  28.2445860
  41.5878439  25.5848145  35.0983930  41.7002153  25.9819126  35.9620571
  40.6394672  25.5193472  34.9864388 100.1171589 104.6250057  30.3757572
  99.3898582 105.2440166  30.4397631 100.4968452 104.6098995  31.2543011
  44.6942186  72.3284960  35.4431701  45.4928303  71.8500614  35.2205729
  44.9233389  73.2491684  35.3162932 102.9266548  52.2402573  79.4635057
 103.5012245  51.5733719  79.0875149 102.1709919  51.7502213  79.7876406
   5.6773275  56.9524765  29.8105812   5.7710403  56.2299252  29.1898012
   5.3956276  57.6937819  29.2745352  83.7286377  72.8607035   4.2542383
  83.2346249  73.6567020   4.0578318  83.4296989  72.2263956   3.6026829
  21.0853672  47.0218563  23.7788248  21.5656352  47.7519274  23.3882189
  21.1698771  46.3117933  23.1425095  15.0546706  19.9923873  27.1055841
  14.5095611  20.4227018  27.7643061  15.5295181  19.3178570  27.5911331
 112.2609193  15.5292773  17.4441338 112.2255034  14.8979068  18.1627071
 111.7901091  16.2945163  17.7742529  49.9115753  20.1059031  35.7468796
  50.0558043  21.0391235  35.5902648  49.1350603  19.8933554  35.2291107
  12.1498001  23.0037808   2.5595403  12.0115888  22.4649119   3.3384818
  12.3703837  22.3768687   1.8706605  22.6659226  30.7929015  20.7264757
  22.8591609  30.9354043  19.7998786  23.2552528  30.0854230  20.9879971
  35.4637098  10.5776882  24.3603730  36.0407782   9.8947912  24.7022462
  34.5833445  10.2113771  24.4440770  67.5678444  22.5204253  13.1263876
  67.9172421  22.2208714  13.9656866  67.0818281  23.3169508  13.3398461
  34.2598677  29.0024590  42.2956514  34.7705460  29.8081827  42.2166109
  34.7940016  28.4337807  42.8502131 108.3208854   0.0053949  46.4488697
 107.3756321   0.0327653  46.5971041 108.5625799   0.9152097  46.2755013
  21.3821125 101.8465424  35.2010465  21.0137510 102.6005173  35.6615567
  20.7715225 101.6832161  34.4822025  58.4221506   2.5416371   2.6840597
  58.9733362   2.5871322   3.4653151  59.0415001   2.5300011   1.9543302
  33.1195045  19.2586946  44.8380423  32.8906679  19.5451033  45.7222557
  33.1274629  18.3029604  44.8903942  24.8410583  12.5512111  55.5181599
  25.1297283  11.6507423  55.6666803  25.5092669  13.0899096  55.9418726
  15.8072364  93.8675690  20.6797576  16.4916301  93.4985542  21.2380290
  16.2588143  94.0980721  19.8678613  45.1522779  35.0193071  31.9675183
  44.2149925  35.0279927  31.7734838  45.5351210  34.4799447  31.2755990
  41.7115259   4.3299669  14.4869089  40.8479214   4.7140557  14.6382189
  41.7511892   4.1952619  13.5400653  10.8444779 105.2645750  56.6447163
  10.1440184 105.8993167  56.7953444  10.5240290 104.7204701  55.9253454
  23.1331515  93.2575130  13.5400069  23.9494824  93.1686592  14.0318823
  23.1678224  94.1421890  13.1761742  32.8054714  72.0520592  29.8135805
  32.1711063  72.7360868  29.5992947  33.1121850  71.7352009  28.9640164
  32.9987812   9.1234982  24.1060734  32.1070075   8.9633185  24.4148016
  32.9460979   9.0173608  23.1562352  87.6501942  91.8218803  84.0860748
  87.8560638  90.8994961  84.2379284  87.0679665  91.8153954  83.3263302
  47.1282864  20.0562739   4.4869599  46.8350458  20.5083013   3.6958137
  47.2964811  20.7583117   5.1155174  51.8660402  28.5225296  37.2881913
  51.5301704  29.4173622  37.2362256  52.5884533  28.5738230  37.9140639
  28.3352256   0.2405534  49.3871927  27.5060415   0.5923501  49.0632725
  28.9342260   0.3168549  48.6444902  25.6799865   2.3019305   6.8950886
  24.7794867   2.1272279   6.6215760  25.7899475   1.7914696   7.6973164
  79.5528687 105.9782856  72.1271038  79.4952879 105.8994225  73.0793142
  80.4757611 105.8193826  71.9289875  83.2125092  31.8417478  75.7470942
  82.5798321  32.2074962  75.1288843  82.6760101  31.4729118  76.4487791
  49.9366474  15.4625630  55.8117962  50.2885914  15.4046047  54.9235344
  50.6422424  15.8579874  56.3236618  71.9561911  24.8321748  42.2751951
  71.3122129  24.4752455  41.6635370  72.7255630  25.0122023  41.7349339
  62.0891047  35.8797288  22.7314067  61.8774223  35.1084423  23.2572770
  63.0400467  35.9636712  22.8013515  41.8558502   5.2555889  38.4252334
  41.7657614   5.3264624  37.4749231  42.4854326   5.9380990  38.6576986
  56.2543774   5.5371583   6.8453389  56.1112452   6.4169770   6.4965361
  57.0984602   5.2697349   6.4816946  57.7920723  32.5378871  34.5606875
  58.0695057  31.9942403  33.8233209  57.9058504  31.9769979  35.3279471
  45.8711290  16.7328560   8.1994343  46.7809057  16.4454865   8.2766211
  45.9290934  17.6795971   8.0707729   1.8399367  89.7439671  58.2759905
   1.9491731  90.6108856  57.8851414   2.6699358  89.5761299  58.7222672
  34.4678688  27.5642371  47.5274611  34.4484997  28.4880257  47.2775173
  35.3520155  27.2739482  47.3032904  40.2196598  21.7948747  19.5199621
  39.9651265  22.2623038  18.7243772  39.8661852  22.3262072  20.2333879
  16.2229955 101.4239407   1.1657322  15.5323803 100.7831860   0.9962630
  15.7831287 102.1309853   1.6377819 111.6814016  83.7882328  15.4545856
 111.8036857  84.6384430  15.0321877 112.0745071  83.1606960  14.8480368
  62.8339148   3.2564163  42.2941732  62.2184992   2.8588241  41.6782045
  63.4898138   3.6780080  41.7389393  55.7349920  44.6621513  57.7848482
  55.3443384  45.4887486  57.5013685  55.0269413  44.2062092  58.2398367
  50.5474472  32.7378535  42.9515028  49.9042177  32.0538759  43.1376886
  50.0303173  33.5402846  42.8814173  42.9752445  29.8533273  34.4063449
  43.6211586  29.9507713  35.1060152  43.4864521  29.5792270  33.6449194
  66.0034990  56.1715746  21.7627788  66.2204742  55.8530998  20.8865786
  66.3487005  57.0640707  21.7855144  71.1199522   9.4120210  54.9643326
  71.5851831   9.6047473  55.7783651  70.5524445   8.6725986  55.1820993
  99.1599464  83.8379860  28.3799458  98.6523819  84.3324757  27.7364469
 100.0685596  83.9369869  28.0956101  89.8134232  42.6122189  87.3256207
  90.7452869  42.6979208  87.1243286  89.6767616  41.6707039  87.4310207
  54.7634792  49.0737247  89.4333744  54.7116661  48.9563131  90.3819370
  54.9485970  50.0056314  89.3171406  48.0359268 104.5313263  20.7826114
  48.6911774 105.2259254  20.8490062  47.9940128 104.1567039  21.6624594
  21.6325760  57.9590082  24.8745513  21.4236116  58.3950520  24.0484595
  22.1620560  57.2035170  24.6193647   0.4968048   2.2864440  23.1854343
  -0.3041322   2.0437525  22.7208567   0.4990350   1.7311935  23.9651299
  39.7172713  29.0247607  19.4374061  39.2170358  29.1000652  18.6248028
  39.2791271  29.6211386  20.0445247  25.1067781  28.9145279   7.9340005
  25.6439662  28.1652665   8.1914246  24.3078089  28.5254765   7.5783086
  33.2562947   6.8273282  47.7792883  33.2959700   5.8724391  47.8326225
  32.5741386   7.0028740  47.1311522  77.3015594  17.6487100  24.4410133
  77.0976591  16.8823588  24.9770761  78.0034590  18.0934751  24.9161482
  14.4293761  23.8605261  38.7770271  14.0027702  24.6953297  38.9702725
  15.2791667  23.9190865  39.2136741  12.9095006   7.7337986  39.3250394
  12.5052238   6.8755805  39.1975451  13.2928967   7.6901972  40.2010155
  32.6835704  13.8798046  46.4725590  32.4756765  13.7035692  45.5549765
  32.1873212  13.2229960  46.9609928  37.2474551  44.3629026  43.1337929
  37.6994729  44.2174387  42.3026800  37.4900460  43.6103582  43.6732912
  39.4281864  22.2208428  76.8056536  39.4660807  21.9879770  75.8779860
  40.3011942  22.0152593  77.1400547  24.5161033  22.3244858  56.7439365
  24.9822497  23.0294466  56.2945271  24.7134829  22.4596119  57.6707697
   3.8471016  69.4708014  42.9565668   4.0400028  68.6334181  42.5348949
   3.0897906  69.8102903  42.4796391  87.8218174  94.4873142  21.7461109
  87.7796555  93.9092350  22.5078750  87.7103424  93.9034081  20.9958744
   0.6446261  76.9773960  21.2051368   0.9626307  76.3328314  20.5729651
   1.2917414  76.9607782  21.9102597  88.0749226  10.9063399  28.2053971
  87.4263954  11.5732038  28.4310722  88.3686733  11.1456871  27.3263884
  12.6217687  92.6961517  39.2435241  11.9465983  93.1749439  39.7242951
  12.9103458  92.0146751  39.8505998   2.4830678  49.3696022  24.4831657
   1.9487977  49.5853233  25.2475309   2.2885334  50.0622368  23.8517809
   4.2958713  21.4927840   6.1105585   4.3285751  21.7490005   5.1888669
   4.3067217  20.5357957   6.0936546  10.1456368  39.0719962  54.1411686
   9.4954121  38.5245657  53.7009859  10.3147054  38.6236715  54.9698114
  24.2534137  86.4294910  24.1312408  23.5500669  85.8934689  23.7648988
  24.8817110  85.7959461  24.4777822  52.4032307  13.4018886  51.1287308
  52.6714849  12.7242804  51.7493105  51.6278315  13.0402124  50.6995678
  92.0170593   8.8241494  23.4815860  91.8196774   8.6165798  22.5682473
  91.3044548   9.4016182  23.7553596  36.3787198  33.3020496  31.4204502
  35.5831432  33.3621120  30.8915997  36.7659664  34.1759992  31.3706565
  32.4966836  27.0543814  42.7722263  33.1603432  27.7039719  42.5402403
  32.9929614  26.2518191  42.9329443   3.4137169  96.3390255   4.5178607
   3.9624363  97.0795822   4.7761723   3.9155930  95.5667019   4.7783753
  78.3903646  10.7849479  10.8525503  78.2428551   9.8400372  10.8927393
  77.5770664  11.1684954  11.1806834 105.3645325  67.5549746  77.6844263
 105.6427956  68.3774948  77.2816133 106.1588287  67.2052622  78.0881834
  43.2177496  30.2297211   9.8683912  43.9292288  29.8722625   9.3371129
  43.6503839  30.5651760  10.6535864  57.3656654  28.2891035  43.8213825
  56.6542530  28.2260180  44.4586754  58.1625938  28.2924747  44.3515921
 108.7951851 102.0827770  10.1158643 109.2496300 101.2432671  10.0454915
 107.8660202 101.8528175  10.1167655   7.0585805 105.8403492  24.6068358
   6.1414528 105.6503963  24.8043823   7.5493884 105.1659203  25.0763941
  50.8715487  25.3351736  26.2118459  50.2423191  25.9677935  25.8652997
  50.6858349  25.3021216  27.1502757   1.5478516  17.8678322  35.0286508
   2.0533425  18.3138800  34.3491268   0.6770781  18.2619309  34.9769664
  41.3437986  18.9003289   2.9266566  40.7548571  19.6522474   2.8634298
  42.2171879  19.2854965   2.9978609 111.8316174 102.5159454  35.0448298
 112.4901676 101.9421387  34.6533227 111.3815022 101.9630909  35.6835628
  61.1300611  12.9459107  85.5710888  60.9065247  12.0192957  85.4836369
  61.9020271  13.0594265  85.0166416  84.5668602 104.6067142  70.0743055
  84.8751640 105.4407883  69.7200441  84.1825676 104.1548157  69.3230724
  57.3978376  26.5849137   8.8897425  56.8821907  27.3892760   8.8319367
  57.0018816  25.9996557   8.2440442  54.1661549  30.1986766  44.6973848
  53.8979101  29.3605542  44.3207836  54.9006319  29.9795127  45.2707481
  47.0208216  19.5032084  27.0886731  47.2628689  20.2454734  26.5348792
  47.7819633  18.9235711  27.0584202  51.8203068  24.0626931   0.5060604
  52.5383854  24.1465116   1.1334123  52.1525097  24.4698071  -0.2940212
  63.2548571  30.2180505  37.4635816  63.8270092  30.8356667  37.9190207
  63.3280230  29.4075036  37.9674578  17.2184658  50.0048923  54.2805862
  17.5801039  50.4713869  53.5270405  17.9706955  49.8555088  54.8533583
  49.6183677   0.2397222  34.4680381  48.7616654   0.3542108  34.0567160
  49.4682224   0.4360456  35.3927803  43.5486555  50.2547264  39.6790719
  44.0359306  51.0732126  39.7732782  44.1493368  49.5804739  39.9965525
  93.1675529  80.3192329  88.4500504  92.9851151  79.4078445  88.2213306
  92.3097897  80.7439995  88.4440517  35.7210732  45.5199003  33.4723091
  35.3982902  46.1027670  32.7850580  35.5588293  44.6389389  33.1349468
  46.2728357  48.1487846  31.6814017  46.8952608  48.0211258  30.9654951
  45.8359718  47.3020124  31.7728138  60.8833075  13.1567132  24.0172815
  60.8644772  13.9257145  23.4476185  60.2487946  13.3535361  24.7064018
  49.8769951  40.9566689  19.1761017  50.5562782  40.5923033  19.7435892
  49.7866058  41.8651772  19.4636273  30.1127291  27.7205920  33.6292362
  29.7353387  28.4988618  34.0392399  31.0030174  27.9817390  33.3938217
   1.8775670  72.7127075  78.5216618   2.2943003  73.1711960  79.2512894
   2.5422737  72.0957327  78.2154894  45.7925987  30.0189996  10.4519165
  46.5414953  30.6147385  10.4738557  45.9891796  29.4133639   9.7372180
  49.4911146   4.0645730  46.9622707  48.7633371   4.6192688  47.2431326
  50.0269461   4.6339107  46.4100266  17.9795766  16.3211167  32.7456832
  18.1892395  16.5001261  31.8290424  17.0304739  16.4326262  32.8004813
  13.9143157  90.7445431  28.6691737  13.9659834  91.6555786  28.3800840
  12.9968584  90.6223774  28.9132643   8.6899626  45.1418352  30.1752353
   9.4523984  45.7200003  30.2007341   8.4834462  44.9770641  31.0952520
  47.6173973  62.7403116  26.9973683  47.0518970  62.5937223  27.7556229
  47.3903418  62.0365238  26.3896203  37.7450013  25.8679056  40.3821516
  37.5192094  26.4456201  41.1111879  37.2441220  25.0687981  40.5457926
  45.5440092  22.1389079  38.2935476  46.3436031  22.4635863  38.7076354
  45.8364964  21.4095664  37.7469730  56.9855976   2.0321144  43.3323765
  57.0981646   2.8383183  42.8287935  56.3365650   1.5303269  42.8392220
  22.0647645  27.9827332  45.8618212  22.7306986  28.2889009  46.4774704
  21.4785862  27.4427986  46.3920069  89.5244312  31.0960484  11.2521183
  89.1445065  31.6107225  10.5400765  89.1590881  30.2190781  11.1351359
  56.1926222  49.2318964  35.2343917  55.4198599  49.5293236  35.7146120
  56.7553759  48.8425684  35.9036922  18.0753434 102.5510025  63.2543039
  17.8156555 102.2069073  64.1089344  18.2271826 103.4835529  63.4076548
  19.8877943  94.9638653  53.2451296  20.8091402  95.2139282  53.1756878
  19.4085634  95.7165718  52.8987217  61.2285042  22.8297186   9.5830613
  61.4402008  21.9000793   9.6678168  60.4690981  22.9552746  10.1520669
  69.4043970  33.7880039  69.1762972  69.7809935  34.6640348  69.2598152
  69.1569853  33.7205791  68.2540894  76.4608812  34.6800232  33.0651999
  77.1420813  35.0783134  32.5233865  75.7575893  34.4709873  32.4504471
  44.6737623  36.2422061  18.5255897  44.5591688  36.4533567  19.4521511
  43.8272810  36.4448452  18.1272936  46.5529633  40.8359671   4.4355753
  46.2874842  41.6487169   4.0052408  45.7827806  40.5675983   4.9366045
  62.1551800  44.1730833  44.7725725  62.1885633  44.0386820  43.8254452
  62.5638247  43.3894587  45.1402330  62.4541330  44.1374922  41.9396400
  62.3974991  44.4268274  41.0289764  63.2876825  43.6697388  41.9909430
  28.3600283  46.6824722  39.9687767  27.9737806  46.5572643  40.8355904
  29.0933609  47.2794628  40.1172924  80.1153088  42.6205921  90.5981827
  79.6990585  43.3710718  91.0221481  79.3886089  42.0407009  90.3704357
  26.8617487  24.9503422  40.2768135  26.5603447  25.3359103  41.0994434
  27.8102016  25.0791740  40.2852392  62.0401764  42.2452354  35.4637694
  62.0661736  42.4548340  36.3973761  61.8587208  41.3058567  35.4341531
  18.8234913  32.5298500  23.4384465  19.0882695  33.4268045  23.6423969
  19.1334319  32.3860669  22.5443029  89.2648697  92.1199417  31.2286472
  89.8553085  91.3692379  31.1650229  88.3879948  91.7361736  31.2226295
 111.6059416  12.8488779  18.9935517 111.0001693  12.1092343  18.9466465
 112.4311602  12.4642420  19.2890203  63.6046982  64.8345232   7.5768107
  63.6084557  65.7916117   7.5909352  63.0182600  64.5867348   8.2915974
 110.7927322  30.3395510  42.8559351 110.0548172  30.4123688  43.4612513
 110.4398537  29.8633957  42.1042824  63.7924576  59.7387791   4.4396457
  63.7766552  60.6578350   4.1725811  64.1045046  59.2698050   3.6657441
  63.0961657  45.4780960  13.3541965  63.6251163  46.0644674  12.8132582
  62.5335932  45.0191450  12.7304125  32.5762916  37.0153999  32.0899057
  32.0590782  37.0984936  31.2887716  33.3378196  37.5763035  31.9426107
  63.8149023   0.6881526  11.4292192  63.0532932   0.1108564  11.4831591
  64.2794800   0.3990009  10.6438577  33.1399393  63.4420443  47.8558016
  32.2555876  63.0834341  47.9303217  33.1252384  63.9488983  47.0439434
  16.9106638  24.1386342  59.0969610  17.0785356  23.8349533  58.2048702
  17.3084402  25.0085354  59.1326809  69.9030495  35.5674982  18.1650329
  70.2587748  36.4505696  18.0656552  69.1302013  35.6814504  18.7181616
  48.0537319  25.4840755  51.6359186  47.2659159  24.9457002  51.5602398
  48.7585974  24.8561811  51.7944956  42.9472446  48.8167858  25.7075810
  43.0623055  49.5351315  26.3296533  42.0715380  48.4775496  25.8927488
  92.4242783  35.1025200  -0.0733072  93.2984066  35.1388264   0.3150388
  92.0307732  34.3119454   0.2959862  30.1785445  43.5689783   6.6158223
  30.7202911  42.7798414   6.6145521  30.7703853  44.2662525   6.3333958
  49.8762560  10.2069199  32.6854181  49.3137026  10.6669021  33.3084583
  49.7285271   9.2791778  32.8689981   5.4258323 103.6451054  19.2182946
   4.6521100 103.2081890  18.8623667   6.1605018 103.1030369  18.9308012
  80.8052254  60.8516073  18.3784628  80.2927685  61.5973663  18.6906517
  80.1938534  60.1153851  18.3992243  58.3083630  18.3907807   1.8731602
  57.3929214  18.1116235   1.8565898  58.5584831  18.3370686   2.7955407
  18.2773697  29.6801257  28.2824302  18.2990348  30.1032472  27.4240994
  17.3891199  29.8353171  28.6036158  46.6540527  19.1352105  46.5416813
  47.5524902  19.4252872  46.3838863  46.3739586  18.7585938  45.7074499
  50.6262486  15.8371498  91.8390335  51.2411969  15.3298571  91.3091975
  49.8677819  15.2623417  91.9417774   5.4198146  30.1705885  36.1704111
   5.5697185  29.5996332  35.4169035   4.7969314  30.8252430  35.8546972
  82.3951912   6.4314348  25.0164151  83.1265545   6.6125113  25.6067920
  82.5498199   7.0000821  24.2621183  44.4185877  55.0249386   7.8323841
  44.4080019  54.0870953   7.6411480  43.5200024  55.3124762   7.6708400
  55.1349401  13.8288844  18.1296670  54.6034479  13.1659424  18.5704172
  55.0538063  13.6209154  17.1988618  31.6618562  67.7848005  18.0771399
  31.7615366  67.1769857  17.3444331  30.7294083  67.7514744  18.2908261
  14.5057344  21.4698839  31.1250997  14.8575199  22.3575234  31.1927581
  14.0273499  21.3387918  31.9437528  37.0351553  85.1360321  14.4668818
  37.7817106  84.7511864  14.9259925  36.3665438  84.4511890  14.4806838
  21.2640238  30.5082107  39.0920687  21.2669683  30.2221465  40.0055170
  20.8703923  29.7784424  38.6138153  36.4109015  39.7439170   6.7446256
  36.5459228  40.2468681   7.5477707  36.1309981  40.3933430   6.0995412
  71.1213493  20.7383227  37.3188233  71.9182110  20.2295208  37.1692729
  71.0484934  20.7947683  38.2715750  38.8275099  26.3608551  35.9621835
  38.2349420  25.6485534  35.7219386  39.1479087  26.1227441  36.8321705
  61.2114573  37.8375649  27.4543595  60.3272820  37.5052667  27.2992778
  61.4018297  38.3785939  26.6880202  41.1166382  12.2550201  20.9091306
  40.1774406  12.4395049  20.8990884  41.4959335  12.9114652  20.3247929
  79.9369097  -0.0272168  22.4045253  79.7556686   0.8414054  22.7635217
  80.6544113   0.1138406  21.7868447  74.1393614  20.6210423  13.5603821
  74.4143677  21.0113978  12.7307868  74.9490023  20.2905846  13.9496303
  79.6406698   6.1816621  25.5724096  80.5723381   6.1000890  25.3685069
  79.2145824   5.5366337  25.0079465  69.4624805  33.6804652  42.2406054
  69.8423672  33.3299184  43.0462313  70.1699495  33.6248732  41.5982437
  41.7345476   7.5087088  27.7363658  41.0116959   7.1725947  27.2065115
  41.3553715   7.6351804  28.6061144  31.9340038  55.5947542  29.9092388
  31.9173694  56.5385294  29.7503591  32.8641772  55.3689337  29.9134350
  32.2839689  43.0398941  32.0398211  31.8547058  43.7585402  32.5040579
  32.2168255  42.2949266  32.6371050  45.0042677  13.5765970  37.7152467
  44.3124914  13.4336114  38.3611846  45.8077955  13.6299074  38.2326722
  55.9201097  43.9718771  40.3083658  55.7212591  43.0786753  40.0275087
  56.6752577  44.2270708  39.7783995  56.6268826  43.6584520  10.7289529
  57.4877357  44.0650415  10.6297374  56.0954809  44.3256855  11.1632884
  59.1595697  37.4296260  23.8259649  59.6891642  37.1120572  24.5573449
  59.6536493  38.1713867  23.4768128  64.6519947  32.9856586  53.9306831
  65.4807472  32.5493193  54.1281939  64.3278790  33.2806730  54.7816515
  68.7506723  21.5681529  15.4011047  67.9981565  21.7333460  15.9691441
  69.4967461  21.5228224  15.9990549  61.2120819  29.2202282  27.3295879
  61.9824362  29.7161984  27.6067185  61.3815117  29.0076542  26.4117956
  17.4784768  43.7951612  14.3949890  17.4272108  42.8395414  14.3751299
  16.6801643  44.0870428  13.9548361  38.6908054  44.5345259  40.8630085
  37.8395510  44.8815393  40.5962276  39.2619658  44.6979475  40.1124763
  68.4726238  26.1744404  50.6548595  67.7380800  26.6238976  50.2369356
  68.2064915  25.2554059  50.6828117  32.5565457  46.4719009  22.5986600
  33.4967065  46.3091612  22.6751089  32.1580625  45.6031609  22.6509905
  50.9230137  52.1060228   2.6804501  50.6581497  51.8176222   3.5538936
  51.2123585  51.3060856   2.2415787  51.5407515  35.5245161  51.2988138
  52.0164776  35.1062226  50.5812168  52.0112562  36.3437819  51.4526558
  31.8912864  29.8053503  22.1832132  32.6446414  29.2816734  21.9103551
  32.2556114  30.6710219  22.3679042  63.6175394  50.7590628  25.7476783
  64.2262936  51.0057688  25.0514102  64.1736698  50.6219149  26.5145826
  17.1363926  36.0231805  26.4850140  16.8074882  35.5928469  27.2742319
  17.7596176  36.6735244  26.8088603  51.4187717  22.9458070  38.7913680
  50.8678436  23.6707401  38.4960985  52.2513866  23.3569288  39.0236568
  26.1263895  36.9782352  19.7594607  25.6759572  37.0818353  18.9212418
  26.6669321  37.7641201  19.8396313  23.6855769  19.1697073  43.4149694
  23.8113499  20.0640225  43.7321663  23.2755923  19.2754912  42.5565100
  57.6915073  34.0197515   1.9494712  56.8465519  33.8234687   2.3541343
  57.8418159  34.9445581   2.1453616  25.4100060  82.0855618  23.8914108
  25.1519513  81.2888813  24.3550324  26.0915661  81.7988300  23.2835507
   0.2085074  99.3733788  16.6577268   0.2680044  98.4902000  16.2934637
   0.6923429  99.3254852  17.4822521  14.0246665  41.0952282   9.6987772
  14.3088865  41.7202473   9.0318424  14.7531807  41.0585022  10.3185761
  78.7150192  41.9681740  21.6340995  79.5285034  42.0488596  22.1320629
  78.8772774  42.4597836  20.8289766  62.2766638   1.6745985  48.3939123
  62.5563955   0.9695875  48.9778137  63.0627632   1.8994923  47.8962135
  93.0255318  23.5917926  30.8182478  92.5753975  22.8909993  30.3465462
  92.4960327  24.3715048  30.6511688  42.9578781  31.5153170  27.1232891
  42.5874949  30.8074141  27.6504707  42.6005650  31.3733268  26.2467074
  56.6560125  62.5566006   1.8101294  55.9838533  63.1829214   2.0787543
  57.4440145  63.0869675   1.6918242  57.5239277  46.6695929  10.2701485
  56.6017771  46.4164209  10.2280772  57.6949835  46.7970324  11.2032783
  73.1857872  29.4342971  36.5922046  73.9865255  28.9138675  36.6570210
  73.4906483  30.3185391  36.3887143  46.9901419  14.1724861  46.3315535
  47.6397038  13.7617218  45.7609606  46.4585018  14.7079849  45.7426310
  45.8120632   9.1230255  11.3685119  46.1830521   9.5188385  12.1571374
  45.2864742   8.3914566  11.6922295  51.2046766  51.9961643  24.7188902
  51.6993809  51.5291309  24.0455532  51.8370152  52.1425581  25.4224157
  71.9318008   2.7805880  27.3679304  72.7214193   2.9243141  27.8895402
  71.4176130   2.1555741  27.8790069  62.9967737  23.7104177  17.6694751
  62.4138927  24.3173790  18.1256282  62.5745249  22.8565454  17.7634871
  60.2057552  17.6224446  54.2481041  59.5716429  18.1127155  53.7248755
  59.9612761  17.8065479  55.1550579  86.9553089  61.5260649  88.9106178
  87.8441811  61.5728188  89.2626858  86.8266773  62.3673153  88.4724617
  18.3700125 106.2242031  52.5846195  19.0087597 105.5233581  52.4540424
  18.1542103 106.5194556  51.7000389  68.4883547  22.5781107  76.3136864
  68.6807585  22.1558738  75.4764748  67.5807953  22.8709769  76.2312555
  54.1732645  36.5921974  30.4004598  55.0377655  36.7651415  30.0276828
  54.3220663  36.5596628  31.3454628  25.9725475  16.9020796  35.2477503
  25.0730658  16.6190183  35.0833082  26.2820959  17.2208822  34.3999434
  52.8550005  33.5622215   9.6406966  52.3234844  34.3052316   9.9264568
  52.2790337  33.0649972   9.0599537  20.8098364  14.9091148  33.5914421
  20.1383257  14.4456267  33.0909610  21.2630773  15.4475963  32.9427195
  40.6197309  13.2934189  51.8350410  40.4692698  13.2803512  50.8898306
  39.8290086  13.6925352  52.1979427  64.8192263  37.7659822  25.5331326
  64.1274405  38.2861304  25.1243424  65.3489733  37.4533820  24.7997284
  39.8111987   0.7469466  38.8841081  39.1763783   1.2641172  38.3883548
  40.3655863   1.3973761  39.3151832  46.1641788  48.5546827  22.5372434
  46.7852974  48.4616137  23.2595873  46.1916637  49.4855976  22.3161697
  61.9905233  20.7680464  27.6155758  61.8691206  20.6930947  26.6690683
  62.0881605  21.7075014  27.7708793  44.7771931  38.0606580  25.1148510
  44.8278570  37.7667260  26.0243940  45.2539587  37.3937559  24.6207142
  61.3784409  32.5087428  78.7432623  61.1503267  31.9383407  79.4773149
  61.5093231  31.9110346  78.0071592   9.3506861  24.6509290  19.6391428
   9.1146123  25.5545712  19.4295430   9.9318296  24.7246337  20.3961587
  86.6454983  56.9366932  27.4251556  86.2669563  57.6977110  27.8653765
  86.0436916  56.7534161  26.7037177  23.6557055   3.5142380  27.3111653
  22.8584409   3.1812611  27.7231479  23.3546448   4.2281222  26.7490578
  58.7911654  41.5374660  24.2432761  57.9250097  41.5863228  24.6477699
  59.3827438  41.3341856  24.9678063  33.3568764  40.1567268  42.4646282
  33.3401823  40.2697706  41.5142727  33.5609531  41.0274458  42.8058481
  23.5634923  76.8189526  57.5414610  22.9217124  76.1574316  57.7997971
  24.3799257  76.3311625  57.4331760 110.4564095  15.6035852   7.6925933
 109.6822929  15.8594024   7.1910620 110.3009129  15.9553206   8.5691398
  82.4668598  53.5157585  90.9881020  81.7742348  53.1154490  90.4624939
  82.6638603  52.8641081  91.6609859  73.9521074  16.7153060  42.7914524
  74.4537306  16.2365401  43.4512901  74.2997789  17.6064515  42.8262901
  25.6262946  26.1263990  12.2257090  25.4793715  27.0417285  11.9873416
  26.5150738  26.1110568  12.5807703  50.5897045   1.2427519  18.2379460
  50.2529287   0.5276252  18.7777674  50.5433226   2.0128661  18.8045192
  59.2331839  40.1674891  29.0457082  58.7372017  39.4438839  29.4286323
  59.8921299  40.3820753  29.7059894  40.7758188  53.6968565  15.1703572
  40.3749323  52.9531670  14.7204089  41.7129803  53.6033821  14.9994087
 107.1065807 101.3803101  47.0142555 106.8176746 101.4825058  47.9210806
 107.6569271 102.1461582  46.8504667  36.7880130  19.7330618  43.4847641
  36.6342163  19.8818564  42.5517941  36.1437631  19.0692675  43.7308359
  62.4141598  37.3390627  34.4780946  62.9828310  37.4071217  33.7111425
  62.7056265  36.5429449  34.9224806  51.7744923  43.4997940  31.0990977
  51.5147400  44.1589355  30.4554439  51.2981558  42.7110624  30.8398032
  70.0223303  42.9394960  30.8341360  69.3119335  43.3082247  30.3091502
  70.2877140  43.6538029  31.4134192  51.2169981  48.7190247  29.6993995
  51.6056108  47.9105091  29.3654656  51.3402224  48.6702776  30.6473827
  25.5859423  31.6547298  37.0337105  26.3153601  31.7797208  37.6407981
  24.8033857  31.7792344  37.5706816  52.9305601  27.2126317  19.2219925
  53.4235764  26.5264320  18.7722158  53.5869408  27.8732419  19.4433355
  49.0773821  52.7088118  26.8748331  49.4921446  52.1265459  27.5113606
  49.3048048  52.3342466  26.0238290  20.0762367  44.7749376  48.7035608
  20.0532246  43.8417244  48.4918642  19.3338466  45.1469231  48.2274151
  67.0918560   9.1823488   9.2335010  67.2466373   8.5708076   9.9534261
  67.0750618  10.0438118   9.6504307  43.6390972  12.5718391  65.4402304
  42.9319811  12.4422598  64.8082256  43.7604523  13.5207617  65.4726458
  63.3073997  26.3160014  61.6807175  62.8923035  25.4547715  61.7277431
  62.8076124  26.7866707  61.0136986  76.0855484  55.4688215  13.2985735
  76.5407801  55.0245523  14.0138483  76.6543961  56.2049294  13.0732203
  58.9128399  16.5881395  43.8332319  59.3518400  16.6132259  44.6834564
  59.5100164  17.0461142  43.2417345  23.6836147  15.8592725  34.1210198
  23.7006688  14.9444091  34.4020271  23.3659863  15.8267725  33.2186389
  71.2082195  26.5319490  25.5985403  70.8244705  25.8003664  25.1150584
  70.5409384  27.2174072  25.5651522  55.9153891  28.3608723  32.6774240
  55.0165272  28.6412382  32.8496861  56.3684082  29.1603112  32.4092722
  68.0533314  21.9455957  41.7435360  67.1242952  21.8987322  41.9692087
  68.3164549  22.8309798  41.9947243  62.5984478  42.3852968   9.8864764
  62.3821115  41.4543104   9.8345405  62.2273970  42.7622747   9.0887046
  57.7986097  39.1853333  37.7299809  58.2708454  39.0616179  38.5533381
  58.1681728  39.9870801  37.3600388 100.3628159  83.4156895  86.3450527
 100.0084972  82.5414753  86.1824703 100.0545311  83.6395741  87.2231579
  88.1121635  73.9285755  82.3079491  87.8953552  73.5609865  81.4511490
  89.0554237  73.7914515  82.3956585  23.3322024  12.0945466  25.9737515
  23.2226348  11.7239988  25.0980115  24.0994787  11.6460955  26.3292956
  59.8250151  13.2739854  50.7273436  59.6807766  12.5010705  51.2732649
  60.0460052  13.9680219  51.3484001  42.3192883  29.7009850  43.2181597
  41.7584515  30.3955626  43.5634947  42.6069307  29.2179894  43.9928913
  44.4628906  67.9911375  22.0853019  44.6068954  67.6263428  21.2121367
  45.3314590  67.9998446  22.4874735  77.7782249  57.3700809   3.9973128
  77.8613949  57.5990963   4.9229836  78.6806583  57.2919464   3.6878943
  22.4880648  50.9246397   5.0746232  22.6572466  51.8033791   5.4143602
  23.0595875  50.8491325   4.3104953  61.0901737   7.5671262  28.0042505
  60.8841753   8.5015315  27.9781079  60.2444839   7.1322745  27.8949237
  63.3009863   4.0928665  38.0535650  62.5330591   3.7199858  37.6205778
  63.2952595   5.0154859  37.7986670 111.3914013  93.3498096  72.6700115
 110.5217552  93.1447601  73.0133963 111.4697742  92.8138638  71.8808079
  98.6702251  45.4311419  44.0824699  97.9501152  45.8677006  43.6274052
  98.4350204  44.5033979  44.0684509  31.4569139  44.8392248  42.6974154
  31.6762185  45.1535177  41.8202829  31.6179991  45.5905008  43.2682657
  71.0905457  32.3583055  27.8014708  71.7718363  32.6675248  28.3985090
  70.8346462  33.1365538  27.3064184  26.0622525 105.1244068  13.5221374
  26.2749171 105.7730007  12.8510654  26.3976574 104.2989731  13.1722820
  40.2378798  27.0845819  27.4572730  39.7978735  26.9792438  28.3007956
  39.7140622  27.7381015  26.9938540  49.7313261  42.8864717  37.7509594
  49.4212341  42.4388266  38.5381603  49.2944193  43.7378883  37.7717829
  22.5667596  90.5246162  16.6274238  22.9288912  90.3549194  17.4970758
  23.0034184  89.8908424  16.0583031  90.7308388  64.2709446  88.0711937
  90.1581383  64.9227571  87.6669884  90.1423931  63.7265968  88.5943127
  34.7367430  45.1893330  44.0134478  35.6501269  44.9946737  43.8035154
  34.6107602  46.0918617  43.7205267  17.3937440  95.4281712  78.3225346
  17.1486878  95.2637196  77.4119711  18.3203793  95.1924706  78.3675051
  41.6793442  44.6166086  26.6791153  41.0830450  44.4732189  25.9442019
  42.4251652  44.0447760  26.4974904  35.9864712  36.7227674  28.7285614
  35.3501987  37.4143219  28.5465050  35.9715271  36.1715317  27.9461622
  89.4243622  94.7295189  86.9335651  88.4818745  94.6629429  87.0869255
  89.5011044  94.9465561  86.0044575 111.0865116  71.6641140  22.9428959
 110.9597397  72.6121283  22.9807758 111.7271519  71.4804983  23.6299896
  21.6945624  82.1319771  10.7629228  22.5210428  82.4582005  10.4069185
  21.1885381  82.9213333  10.9554815  12.9721045   8.9902622  62.4876070
  12.6847363   9.5777625  61.7886829  12.3211372   9.1052014  63.1798935
  26.2282753  38.3520961  58.3785582  26.9286680  37.8249598  58.7630177
  26.3196468  38.2201791  57.4349070  42.6680994  34.9196386  54.7461367
  41.9255209  34.6570277  55.2900553  43.2785368  35.3321767  55.3572083
  57.9123449  26.4209414  23.2131577  57.8071213  25.7871842  23.9227438
  58.6375952  26.9782567  23.4953713  62.0668173  30.6626105  30.0056767
  61.8507957  29.8109865  30.3855515  62.5724316  30.4532528  29.2203379
  76.6925335  24.5618367   7.7899879  75.9932566  25.1559782   7.5175142
  77.0658493  24.9729037   8.5696626  56.5131378   3.5841531  49.3829966
  57.0835972   3.2052922  50.0517797  57.1110487   4.0283608  48.7818241
  79.1385594  39.8589818   0.6398567  78.1923771  39.7945039   0.7695278
  79.2929378  40.7862394   0.4593548  25.3609705  36.5428853  39.9781418
  25.7366419  37.3431134  39.6110773  25.5091500  35.8782530  39.3054318
  76.9205284   8.3348542  47.7736855  77.8412390   8.0768389  47.8178072
  76.6999578   8.5895181  48.6696386  96.9787216  11.3219261  21.2286973
  97.8366280  11.0543084  20.8991480  96.3552570  10.7933915  20.7305288
  56.0628128  17.1225321  16.7985499  56.7183638  16.8252110  17.4294889
  56.0780478  18.0770051  16.8691385  61.0839605  28.4273338  51.3972235
  60.3063965  28.0927825  50.9503460  61.7062044  28.6076355  50.6925678
  25.0434875  13.2069767  34.4136906  25.6479907  13.5430932  35.0753808
  24.2017794  13.1487358  34.8657608  62.3037052  28.0730438  15.5852878
  62.1737671  28.2340431  14.6507144  61.4736843  27.6996088  15.8816683
  32.2264719  25.2367067  52.6206350  32.3654556  25.4185081  51.6911936
  32.3985124  26.0714674  53.0563068  67.2248411  10.6814730  32.7218962
  66.8025589  11.5358412  32.8111434  67.9885817  10.7305670  33.2968068
  41.5383816  36.0146451  15.3673041  42.1155357  36.7662978  15.2326167
  40.6888247  36.3020253  15.0327897  73.6335754  21.7838216  40.9265184
  73.5643911  21.1215067  40.2389288  72.7276707  21.9632411  41.1782694
  38.1803727  47.0019960  59.6024323  38.5207796  47.8795242  59.7764969
  38.7982035  46.6253710  58.9757967  62.2308588  28.0821395  68.1757689
  62.9272223  27.5058603  67.8607893  62.1912718  28.7860227  67.5283003
  67.9672623  31.8452692  14.2482793  67.0294714  31.6938257  14.3659389
  68.2328320  32.3244405  15.0331998 108.5060787  95.6126785  83.7750149
 108.8286018  95.6498241  82.8745556 108.0874348  96.4620590  83.9147091
  60.5707693   5.3208464  61.4458323  61.1980247   5.0636327  60.7700920
  61.0812473   5.8524215  62.0566225  42.5178385  37.7657437  18.3568680
  42.0084858  37.3435926  19.0486634  42.1600389  38.6519074  18.3027864
  23.1981468  37.8948998  30.9000421  23.8745260  37.4035954  31.3662624
  23.2450676  37.5721526  30.0001168  66.8815470  62.7291870   0.9588449
  66.7333937  61.8498087   1.3066606  66.3783646  63.3031273   1.5364510
  39.2136288  43.3985090  36.6649771  39.0483809  42.4622774  36.5536284
  38.8778830  43.7980747  35.8625722  62.4782944  43.7851286  20.9352446
  63.2949448  44.1021347  21.3210130  62.1429205  44.5310783  20.4379344
  77.4945259  39.3531680  14.8962641  78.0385494  38.6137366  14.6251380
  76.9492769  39.0036297  15.6010747  87.2183323  40.6798792  16.2614405
  87.0773983  41.6245651  16.1986899  86.3387394  40.3114605  16.3440347
  92.6137829  20.8984041  37.0927954  93.5362720  20.7000113  36.9319248
  92.2056484  20.0437593  37.2315001  72.9895782  70.6265736  42.6195765
  72.7852154  70.6962013  43.5521078  73.1376696  69.6918631  42.4759769
  80.1496506  24.5737362   4.7882459  79.6524143  23.8627219   5.1925361
  80.6045246  24.9933076   5.5185080  76.1413860  22.1516037  21.1589289
  75.9459734  21.3730597  21.6803837  75.7277489  21.9828868  20.3123665
  83.4554100  96.4227486  89.0392399  82.6470661  96.0035515  88.7441444
  84.1320133  95.7589626  88.9057064  25.6439829  23.3979845  85.1192856
  25.4426289  22.7797008  84.4168568  26.2210369  22.9117727  85.7082176
   0.5682750  23.7791228  80.7315636  -0.2032878  23.8163710  80.1662827
   0.5479284  24.6025658  81.2191677  72.0623302  66.8783855  30.0690198
  71.3877630  67.0113707  29.4030547  72.1107674  65.9282494  30.1744819
  88.7168026  43.4786081  18.7956619  88.3619595  43.1861067  19.6351600
  89.1639233  42.7090359  18.4434187  31.4031219   9.1598254  81.0367203
  30.8350110   8.3905035  81.0770321  30.8270216   9.8943484  81.2484169
  46.1705256   0.5759197  88.0657768  46.5333700   0.7237171  88.9391136
  46.9200659   0.2991213  87.5387001  48.5618734  40.4020643   2.3780599
  48.1200933  40.4322958   3.2266745  48.4766340  41.2903881   2.0318782
  63.0311108  39.5950079  47.0612431  62.5647449  39.4954967  47.8912067
  63.1392574  38.7003684  46.7385149  24.5421553  95.2578259  81.7997742
  23.6362529  95.2555847  81.4906311  25.0636697  95.4118061  81.0120201
  70.1558876  73.8797188  27.3203444  70.5445528  74.6628284  26.9305801
  70.8628559  73.2344151  27.3169875  97.6605511  55.1094294  10.7553089
  98.4288597  55.2180004  11.3157916  96.9830132  54.7709179  11.3406134
  61.6808033  47.6573706  30.5470634  61.6564369  47.0809078  29.7833037
  61.8189335  47.0674372  31.2880945  48.1194735  24.6504164  33.3630562
  47.2428179  24.9022889  33.6533475  48.0436134  23.7199759  33.1515026
  94.2412758  43.2596731  14.0417814  93.8662243  42.7239704  14.7407734
  94.4695377  44.0852690  14.4690049  90.9592819  70.7324457  17.0369136
  91.3243294  71.3101912  16.3667035  91.0872269  71.2073708  17.8580773
  75.8055782  27.9812860  34.5317531  75.6071663  27.0604324  34.7017241
  76.0600376  28.0051613  33.6093044  66.4595222  28.2066059  30.4732299
  66.3071346  28.2134557  31.4181972  67.3177719  27.7950382  30.3720021
  53.7328959  25.6326127  24.7426963  53.7165451  26.5887880  24.7838521
  52.9148483  25.3609395  25.1589012  41.9744778  57.7741051  20.2225518
  42.6546907  58.1879330  20.7538557  42.4466753  57.1466208  19.6752548
  51.2314463  14.3851173  47.0292854  51.2123394  13.6696649  47.6648951
  52.1624804  14.5663023  46.9005251  79.0236855  72.5924921  20.1884413
  79.7824764  73.1253624  19.9506927  79.3983841  71.8024158  20.5778122
  53.7412357  42.0712996  50.7464266  53.6206436  41.5607500  51.5470695
  54.3979406  41.5844202  50.2485180 101.6974068  95.8460999  81.5469265
 101.2852097  95.9189415  80.6861019 101.1487770  96.3804054  82.1211624
  39.4790411  56.3033772  22.3797727  39.8273325  56.1132193  21.5087008
  39.4136691  55.4476357  22.8036404  90.0306416  13.9323938  57.1554518
  89.8260880  14.1850591  58.0557537  90.9321022  13.6129797  57.1952677
  83.9525414  92.3606682  88.4372997  84.0017509  91.7308521  87.7181721
  84.3667889  91.9140244  89.1756344  45.6055880  54.2909384   1.1501803
  44.8405933  53.8106680   0.8333850  45.3365898  54.6349096   2.0019761
  64.2478752  41.8124342  45.6469536  64.7982645  42.1314001  46.3621902
  63.7740040  41.0701752  46.0220909  76.0566950  20.6302094  33.0173707
  75.1682568  20.9288001  32.8230691  76.2515688  21.0020232  33.8776088
  90.4879379  78.0694151  12.2324264  91.1703777  77.4012756  12.1684587
  90.4847431  78.3208656  13.1560028  95.2713680  68.6371088  26.8018842
  94.3278599  68.7775993  26.8810892  95.5037403  69.0379906  25.9643102
 107.0600796  94.7690582  75.5066490 107.8488445  94.3564606  75.1547241
 106.7234993  94.1383648  76.1431694  74.1922712  35.2259231  31.3403320
  73.5409307  34.5801878  31.0664535  73.7343693  35.7716942  31.9796228
   1.1179580  99.8385715  72.2267485   0.3044304  99.9339008  71.7314529
   0.8692307  99.3336773  73.0009890  59.4232368  29.2003345  16.0441351
  58.7562132  29.8154259  15.7392168  59.9947071  29.7251916  16.6046464
  64.5564461  14.4431376  37.2378683  65.4887915  14.2930913  37.0814872
  64.5098639  15.3419471  37.5637579  44.8554659  15.6179070  36.0543227
  44.1519976  16.2426901  36.2304187  44.7543240  14.9468279  36.7293453
  57.7907562   1.4501290  20.4282260  58.0413628   1.3963592  21.3504696
  57.2378111   0.6820127  20.2851081  90.1782703  54.9216890   1.0045902
  89.4273186  54.8064852   0.4223301  90.8286095  55.3766775   0.4695471
  54.0554810  52.2085619  16.8382204  53.5608339  51.6687393  16.2216616
  53.5209703  52.2161436  17.6322436  60.3477478  23.1349111  91.3991833
  59.4159269  23.3196425  91.5167046  60.6411886  22.8282070  92.2571182
  70.3297186  46.6814995  35.4418731  69.3879700  46.5120173  35.4170609
  70.5616331  46.6099787  36.3677955  48.7782049  30.6270766  19.6909308
  48.4115505  29.8735404  19.2283487  49.7211885  30.4633999  19.7057366
  12.8996825  18.2409108  84.4351482  12.2443593  17.6237941  84.1096401
  12.8845692  18.9610004  83.8046932  59.2812443  27.9868841  68.5751200
  58.9021206  28.2051539  67.7237320  60.1148653  27.5658584  68.3652449
  62.6296711  69.3163633  24.4868851  63.5339737  69.0367174  24.6292305
  62.1019506  68.6645412  24.9482584   5.8197451 101.4371872  88.2308865
   5.6284964 101.6374588  89.1471577   5.2366221 102.0106983  87.7336121
  41.6476870  49.5568800  37.4380040  42.2882748  49.7036123  38.1339574
  41.1465931  48.7955189  37.7303433   3.5042638  20.4340410  27.7801991
   3.8801527  20.2001905  28.6288762   3.6888966  21.3685060  27.6857734
  85.7739925  37.4321055   4.0231356  85.7277775  36.8790102   4.8029959
  86.3606262  38.1467867   4.2707899  63.9513731  33.8824582   6.2045699
  63.5805559  34.6203518   5.7205880  63.4649563  33.8679528   7.0288390
  70.8536768  52.4861526  32.3996997  71.0976028  52.2638655  31.5011907
  71.5965605  52.1951342  32.9285312  54.8831511  42.4264860  33.7439489
  55.2430058  41.5720797  33.5057735  55.4121494  43.0546808  33.2522511
 104.0536594 100.3167629  90.0569439 104.2097759 100.9591961  89.3647480
 104.9289322 100.0512886  90.3391647  52.1314955  40.9471512  38.0117893
  51.3467312  41.4927340  37.9596996  52.3460388  40.7485151  37.1003342
  53.2931948  49.8419714  41.3577414  53.1653643  48.9954185  41.7858124
  53.4831429  50.4467678  42.0749378  62.0678711  46.1874437  46.7854977
  61.8786955  45.3913021  46.2889051  61.8914413  45.9495687  47.6957321
  45.2080965  32.1924281  23.6912394  44.8310757  33.0629563  23.8187790
  46.1444092  32.3519778  23.5725045  40.6580830  67.3892117  24.3845558
  41.3786173  67.3214674  23.7580752  39.9137139  67.6878357  23.8620949
  47.2922516  32.1709633  26.8219686  48.0295038  31.9147515  26.2678480
  47.5160933  31.8338108  27.6894116  62.8754807  16.6482389  28.0624294
  63.4823322  17.2393954  27.6169014  63.1080675  15.7778871  27.7389765
  54.3761778  50.8653402  43.7486839  53.9755154  51.7096901  43.9554882
  54.0461493  50.2719545  44.4233751  71.0007238  58.3065653  33.7013960
  70.0906897  58.3687401  33.4112167  71.4774466  57.9988909  32.9304838
  74.2942476  61.2490511  33.1932187  73.5420847  60.9992743  32.6564717
  74.0421677  62.0855427  33.5843325  41.2561560  58.3014679  36.7461967
  41.8702316  57.8607178  36.1589313  41.1422968  57.6916790  37.4751854
  63.8437080  70.3926277  14.7086024  64.2054319  70.6360435  13.8564658
  62.9150915  70.2347803  14.5383668  85.5697060  20.3364515   7.4494565
  85.1688766  19.9536693   6.6690433  86.5115643  20.2663112   7.2938758
 107.7447891  78.1933451  87.3223305 107.7991772  77.9515743  88.2468987
 107.1010208  78.9012814  87.2973633  49.4747782  37.5468802  31.8747330
  50.1088285  37.9584026  31.2874818  48.6725998  38.0552864  31.7552924
  45.4879284  65.0603104  43.1272459  45.5809593  65.7105875  43.8234615
  46.3171244  65.0993919  42.6506472  53.9581203  49.5578289  19.1377938
  54.8603964  49.3302774  18.9134002  53.7936068  49.1000652  19.9621868
  67.8114271  29.0408587  20.5637598  67.3601198  29.1994476  19.7346628
  68.2753134  29.8584723  20.7441616  89.3503952  65.1959467  81.9449520
  89.9968719  65.6358099  81.3928413  89.6422672  65.3691673  82.8399563
  56.8917799  46.2191200  31.5226007  57.1204710  45.3166580  31.7450857
  55.9475899  46.1955500  31.3670850  28.5924482  24.8776150   4.3404603
  28.9781666  24.4859099   3.5568672  28.8436699  25.8001661   4.2955282
  90.8710289  14.3584526  22.6353765  91.4215946  14.8266423  22.0077538
  90.3687000  15.0458753  23.0728006  92.9448414  93.0136776  20.8491611
  92.5132942  92.3594666  21.3987136  93.1136894  93.7483025  21.4391112
  64.0521812  61.4241314  16.9615793  64.8763275  61.7220592  16.5765476
  63.9882803  60.5034018  16.7077911  79.7995996  35.0227308  23.0429626
  80.0509453  34.1624475  23.3790684  80.4731083  35.6159759  23.3756423
  94.7143269  75.2157450  30.0667071  94.7105598  75.8345318  30.7969975
  95.4584599  74.6404028  30.2441049  56.3897324  45.9920549  35.6929398
  56.3826180  46.7570734  35.1176739  56.8223953  46.2963057  36.4907265
  72.5996113  34.1989064  38.1200886  73.0463886  33.4833193  37.6678061
  73.3013439  34.8011255  38.3673549  30.3687572 103.5360527  20.1170778
  30.7617664 102.8655338  20.6758142  30.5754328 103.2560635  19.2253816
  98.0048561  87.6797295  75.8887815  97.5320911  86.8966198  75.6068993
  98.1759644  88.1606483  75.0790501  45.3869486  25.2405500  41.0978842
  44.6172142  25.7431364  41.3646221  45.4147339  25.3324032  40.1455069
   8.2553041  32.5391603  41.1939335   8.4882861  33.4606314  41.3072491
   7.9639757  32.4758720  40.2843428  52.4755812  62.0561314   0.9189729
  52.2718143  62.8942633   1.3340020  52.9807329  61.5793037   1.5775234
  52.8573370  40.9912109  35.3211427  53.1632042  40.1520824  34.9768376
  53.3336973  41.6469860  34.8119569  88.8078022  23.5679173  32.0932150
  89.5795345  23.9202690  32.5365019  89.1184139  22.7661729  31.6725516
  72.5042772  31.3465500  30.6595421  72.8990412  31.9879675  30.0687981
  72.2972345  30.5994606  30.0980949  70.5575132  35.1504874   9.4402528
  70.1562500  35.9102511   9.8621231  70.0536299  35.0294805   8.6354619
  71.7089510  12.3301923  60.8445692  71.8837214  13.1218553  60.3356886
  72.5748491  12.0191419  61.1085749  37.5515437  27.3480964  42.5154352
  37.6710582  28.2907391  42.6310921  37.1704030  27.0517993  43.3419800
  73.1025839  26.1357236  15.8270609  73.1391859  25.2103162  15.5851722
  73.9985704  26.4503360  15.7068062  71.8139601  33.9011788  40.8964539
  72.3429871  34.6988893  40.8914328  71.9928217  33.4898448  40.0508499
  39.1347885  35.8883071  38.8366818  38.8905096  35.2148056  38.2018948
  39.1997790  36.6917253  38.3204174  60.5915833  22.0056105  33.0462408
  60.1068926  22.7694058  32.7333093  59.9419785  21.4882374  33.5222292
 106.2000465  98.4384155  87.1646023 106.3579559  98.0956459  86.2849426
 106.8804359  99.0999985  87.2895718  74.6054077  42.3809528  20.5251575
  74.0299225  41.6952658  20.1862073  75.4549408  41.9518709  20.6271911
  32.6711965  19.0321815  22.7364683  32.3403835  19.6566451  23.3821011
  31.8843651  18.6473167  22.3504567  58.2056904  69.5063210  15.4486287
  58.1982231  70.3785706  15.0544822  57.4032164  69.4718790  15.9692836
  30.4581451  49.6238804  32.8170896  30.3670788  48.9983034  33.5358334
  29.5672822  49.9345827  32.6556683  95.7377052  48.6645794  37.5096869
  95.8292007  49.5620346  37.8297400  96.0738850  48.6942863  36.6139579
  51.6784286  39.6431637  32.1126509  51.7028046  38.8497448  31.5777445
  51.3843632  40.3280067  31.5120292  85.9973717  96.0145092  15.9043431
  86.0654545  95.7492447  16.8215322  86.8741417  96.3257504  15.6793189
  44.0457296  50.9064150  34.6647429  43.7411261  50.9617329  33.7589908
  44.8952341  50.4693127  34.6054769  56.2862301  57.6089621  13.2031369
  56.9787693  57.4405289  13.8420844  55.7301807  56.8307972  13.2418799
  63.0200577  91.1702442  74.0082598  62.2476006  91.7350197  73.9844561
  63.6813450  91.6476536  73.5072517  22.1380877  39.6468544  39.9485040
  22.9054761  39.5041156  39.3944526  21.4458394  39.1296744  39.5367360
  83.8194942  55.0710630  18.2590890  83.7053204  54.4466877  17.5426066
  84.5059204  55.6638622  17.9530942  69.7511625  25.3818727  33.2525635
  70.0825787  26.1388612  32.7694845  69.5333195  24.7419262  32.5748873
  63.1603765  40.2513075  38.1838965  62.3116446  39.8816323  38.4272528
  62.9523611  41.1159039  37.8297257  38.7710857  37.2687531  29.3375492
  38.8150239  37.2144699  30.2921987  37.9632235  36.8092895  29.1084528
  52.1082544  27.5850964  34.5989037  52.9665852  27.9447532  34.3749642
  51.8875265  27.9951406  35.4351902  59.2316008  30.2951455  39.4046879
  59.0356970  30.8175421  40.1824760  59.6581459  29.5089006  39.7454405
  44.0853310  40.8767509   9.9661827  43.4022951  40.5767155   9.3664557
  43.7440062  40.6759930  10.8376324 107.6683044  23.5160661   4.7538766
 107.9261112  22.6471567   4.4460434 106.7445755  23.4232497   4.9870026
  97.7874947  55.4246283  17.9085660  97.9754925  54.9934864  18.7422335
  97.5938034  54.7066212  17.3059189  47.5422525  24.0277958  29.6414709
  46.6992426  24.2070866  29.2250323  47.3190498  23.5377741  30.4328585
  52.8939915  48.4101582  12.2912371  53.1704187  48.9488602  13.0326033
  52.1853590  47.8690195  12.6394272  61.4584017  48.4292555   1.7178871
  60.8151770  48.1107855   2.3511916  62.2735119  47.9918098   1.9637789
  78.6909580  55.7549334  25.6595802  79.4165039  56.3534641  25.4818797
  78.9834881  54.9133873  25.3096437  81.1900330  19.0274072  37.4191308
  81.7117023  19.6978974  37.8601980  81.7702675  18.6794698  36.7420030
  51.8712187  66.5565252   8.9602327  51.2018967  67.0355844   8.4716219
  51.9259262  67.0115137   9.8006028  67.7991152  51.9354725  20.1294684
  68.3192825  51.1341906  20.1895428  68.0293989  52.4300528  20.9159756
  66.9630671  27.2204757  27.2344542  66.2652969  27.7919841  27.5549698
  67.5601721  27.1317387  27.9772997  93.3420277  88.7763500  84.2528057
  93.4810734  88.3931065  83.3867645  93.6287212  88.0976772  84.8639011
  64.0800381  30.6409144  32.6337099  64.7557592  30.1204324  33.0681396
  63.3542681  30.6598234  33.2575130  39.2753220  64.1666937  29.2391491
  39.9491596  63.6460066  28.8020468  39.7641873  64.7679329  29.8010707
  58.0861235  16.3438857  18.8702881  58.2082272  16.8446672  19.6768486
  58.0442619  15.4320717  19.1585135  50.2831745  63.1771517  26.3920164
  49.4623709  63.2513666  26.8788505  50.0572062  63.4405899  25.4999566
  37.0305443  95.5605602  74.3177748  37.8701663  95.9687424  74.5290947
  36.6140366  95.4158020  75.1673651  76.3579035  60.4917192  27.1835232
  76.1091089  60.0527000  27.9969096  77.1056700  59.9896908  26.8594193
  55.1807404  21.0267115  32.4633026  55.4542685  20.1552963  32.1768546
  54.7706223  20.8808398  33.3158016  82.3288250  67.2615528  22.7728224
  83.1233025  67.6346445  23.1547070  81.8317223  66.9370413  23.5236979
  33.0356431  97.9542160   5.2960044  32.2827125  98.0828381   5.8728784
  33.7962461  98.0709267   5.8652955  35.1819777  47.7029991  31.2851048
  34.4908857  48.2176924  31.7018986  35.1524663  47.9634428  30.3644919
  66.0253048  44.4161987  34.7601366  66.2765884  43.8394642  34.0387034
  65.1784325  44.7755194  34.4956970  47.7734613  26.0148406  13.1155884
  47.9569483  26.9437575  12.9753053  48.3332825  25.7686615  13.8519514
  85.1673889  68.3655739  65.1184320  84.6465588  68.9420652  65.6775618
  84.6580315  68.2903290  64.3115139  52.7489853  36.3485765  37.4553967
  52.4329805  35.8993530  38.2393408  53.1799698  37.1359468  37.7878666
  71.3134766  68.1866837  20.6855130  71.2762260  68.3640623  19.7456312
  72.2136211  67.8999519  20.8396506  14.9850321  77.4375629  38.0385876
  14.5648825  76.7383003  38.5393238  14.8642862  78.2215786  38.5742855
  78.5195303  29.7341490  43.8673067  78.1053686  28.8818645  44.0026331
  78.6435938  30.0830126  44.7499943  77.4655819  84.6870804  40.9495592
  77.3376465  85.3117466  41.6634607  78.4126902  84.5526218  40.9157991
  74.7542143  93.2789516  26.1836410  74.4385433  94.1772938  26.0859084
  75.0951767  93.0495071  25.3191566  68.6102676  38.8238478  25.3841257
  68.6081648  39.0902376  26.3035107  68.2480192  39.5760775  24.9159789
 102.4622250  44.6853542  33.8304973 102.5670528  45.2034855  33.0325103
 103.1475449  45.0066519  34.4164419  78.5493231  75.3091240  64.1997147
  78.2376432  74.5917940  64.7515535  78.6909246  76.0348415  64.8075914
  62.8487730  91.4117241  29.4883776  62.4351788  92.1962166  29.1281724
  63.6935616  91.3596058  29.0413356  70.7904959  64.7086382  48.7248182
  71.4780521  65.3722382  48.7807798  70.3529453  64.8867130  47.8923082
  90.1322460  55.8352280  32.5767970  90.1895237  56.6450453  33.0838966
  89.8896027  56.1208344  31.6960073  62.4105310  42.8767157  37.9734206
  61.7537451  43.4855175  38.3113980  63.1907940  43.0494070  38.5002923
   6.4741689  75.8123779  51.9205809   6.2108231  76.3376284  52.6762199
   7.3538554  75.5040359  52.1380901  78.5880566  54.7127724  21.9248796
  77.6822329  54.4221210  21.8188524  78.5461664  55.6648350  21.8351364
  64.2200994  49.8469877  28.2663751  64.3417120  48.9683390  28.6261296
  63.3992672  50.1524353  28.6525965  81.6837406  36.3716245  29.5144153
  81.1357021  36.1160111  28.7724209  81.7403316  37.3251796  29.4530988
  88.1162834  60.3997087  36.8227601  87.4816704  60.1015329  36.1711621
  87.6272774  60.4113340  37.6455450  81.2965870  95.4594517  53.4486485
  81.9366550  95.9155846  52.9023075  80.6222916  96.1153126  53.6258650
  87.7844524  54.8248577  29.4136739  88.4252548  54.8178196  28.7026453
  87.6283741  53.8999701  29.6045995  94.8329353  44.7381210  34.0580058
  94.7153473  44.7530413  33.1081748  94.6499729  43.8323879  34.3078041
  70.9046364  59.0566063  39.7784185  71.2310839  59.6748972  39.1246796
  70.6582880  59.6041203  40.5239201  90.3847599  81.0107231  31.2089944
  90.4656506  81.8811417  31.5989470  89.7599792  81.1261272  30.4930663
  64.7544479  30.0694156   7.0016152  65.2699423  30.6775212   7.5314307
  65.3989649  29.4610405   6.6400766  69.2363453  50.5393600  37.3075533
  68.4440756  50.0181341  37.1776819  69.7894573  49.9981022  37.8708839
  96.7854977 101.7751789  70.8376789  96.1398506 102.4813557  70.8638334
  97.0447445 101.6537189  71.7510653  70.6499958  58.0146313  48.9248037
  70.3123808  58.6000538  49.6026897  71.4612103  57.6644945  49.2930031
  20.7104158  96.2321663  89.1081333  20.2185655  95.7790470  89.7929668
  21.6254115  96.1522198  89.3776131  83.1314182  59.2970467  44.7134447
  83.9040947  59.5195818  45.2327538  83.4501362  58.6659288  44.0682030
  75.8186102  67.7229786  41.0319233  75.4195976  68.3888245  40.4718637
  75.3038073  66.9327211  40.8685160  96.4313221  85.6827164  37.8548741
  97.3289394  85.3807735  37.7157497  96.0648441  85.7584858  36.9738626
  71.0027075  72.9921675  43.4325838  70.8143377  73.9279270  43.5039806
  71.2464905  72.8662062  42.5155592  63.4114552  50.2889395  37.4580073
  62.5119019  50.3115273  37.7843976  63.9429712  50.5756950  38.2006311
 106.6153049  79.7624445  36.1907625 106.8256664  80.6935310  36.1196351
 106.1865520  79.6781445  37.0424056  75.7307816  52.4478722  32.9760170
  76.4219952  51.8862486  33.3267808  76.1986494  53.1700182  32.5566888
 106.4796162  63.8445854  19.3516064 105.9095192  63.1919622  19.7581768
 106.5839577  63.5426140  18.4493005 101.5958786  58.0085373  48.5654354
 101.5425014  58.5227871  49.3709946 102.4925900  57.6738644  48.5539007
  80.1811981  65.8237743  56.3805676  80.0800228  66.4523935  55.6658411
  81.0186386  65.3945780  56.2052965   0.6984400  95.7601833  82.6593781
   0.2303092  95.9833431  81.8548393   0.0077922  95.6168842  83.3064461
  99.8370075  56.7151165  38.9630485  99.8550510  56.1212254  39.7135139
 100.5064106  56.3728571  38.3706069  32.9368973   0.9595641  76.8618155
  33.4621954   0.8911433  76.0645628  33.5529137   0.7758193  77.5710344
  68.6135817  43.9036989  19.3872702  69.1063929  43.7932825  18.5741436
  69.2683983  44.1795921  20.0286198  61.3386488  85.2123642  49.6846867
  61.3041687  85.2812099  48.7305880  60.9556627  86.0317612  49.9979448
  74.6711922  26.2693143   8.4854513  74.1297674  26.3673973   9.2686939
  75.5555105  26.4923143   8.7761152  67.6162052  52.8640032  22.8444743
  67.7465105  53.8122654  22.8519106  66.6700888  52.7515268  22.9363585
  92.5355816  61.6138029  67.3779154  93.0858898  61.0065079  67.8724670
  92.0103359  61.0516119  66.8084574  67.3196554  51.6763210  11.5224934
  67.6940632  51.5451002  10.6513834  67.2182608  52.6250410  11.5991867
 105.6912994  92.4439716  91.8513298 104.7474003  92.5431061  91.7269897
 106.0234737  93.3409119  91.8886185  30.4231024  42.2488880  20.9110188
  29.8246837  42.6830292  21.5190077  30.8192253  41.5458393  21.4258409
  43.7268782  42.0777750   0.2927529  42.7824974  42.1459770   0.1522857
  43.9352942  41.1676693   0.0817978  14.6536076  17.1496224  90.6635666
  15.1906753  17.2953963  89.8847580  14.1082478  17.9335773  90.7285976
  54.6048546  67.5491619   3.0852118  54.4223070  68.1224918   2.3407656
  55.2206802  68.0454445   3.6243755  75.4554415  58.8756800  31.5460396
  76.4108324  58.8948202  31.6016197  75.1658344  59.5411539  32.1701431
  96.8578911  58.8120127  26.2507200  96.7635632  59.2319393  25.3957343
  97.6764202  58.3199120  26.1868620  74.7012281  48.0923557  33.9058304
  74.0398502  47.4016428  33.8643074  74.2495394  48.8756609  33.5917544
   8.5666084  55.3836918  13.1475663   8.0229306  55.3062725  13.9315641
   8.3889490  56.2649965  12.8189707  33.6761093  64.1997766   3.9084417
  33.8634372  63.8987827   4.7975659  34.3455505  64.8611832   3.7334520
  90.6578445  89.7306728  31.3143754  90.1749229  88.9372635  31.0830212
  91.5000439  89.4122791  31.6392541  82.8945160  51.4317226  21.4509106
  82.2762871  52.1566772  21.5428638  82.3568535  50.6452227  21.5434408
  85.5379200  46.6385746  31.2215090  85.9765625  47.3718262  30.7900357
  86.0710621  45.8755970  30.9982347  75.5473280  57.3231649  39.3048453
  75.0342369  57.4166489  38.5022044  76.1369848  58.0771685  39.3013573
  89.3182468  42.6835108  14.8424029  89.7352219  42.6247787  15.7020056
  88.5232258  43.1939173  14.9962175  73.5753012  17.4292564  25.5108905
  73.7470818  18.2856762  25.9023857  72.6459312  17.4521852  25.2829123
  76.4430046  71.8251181  35.6350470  76.0454702  72.6303244  35.3036237
  75.7900047  71.1468983  35.4622984   3.8212317  44.0307951  33.5639119
   3.3802748  44.6060467  34.1891122   3.9946643  44.5890093  32.8059196
  70.4176188  44.4333410  21.2138581  71.3325357  44.5460367  20.9560561
  70.2192879  45.2090740  21.7383909   6.0399532  70.4876566  68.1602097
   5.9700263  71.4345455  68.2816267   5.5201423  70.3075933  67.3768806
 108.0286217  78.3850384  51.7114782 107.2152328  77.9883909  52.0234013
 108.3613586  77.7680969  51.0596323 107.6486397  73.5755539  33.1657362
 107.6637554  74.0957880  32.3623943 107.6866722  74.2221117  33.8705397
  62.1035941  71.3180850  -0.0857464  61.1572750  71.2188624  -0.1899925
  62.3664577  70.5652819   0.4438004  75.3013849  55.9588480  31.4595556
  75.1991415  56.9080257  31.5291262  74.8699999  55.7312059  30.6359553
  71.1514854  57.4460077  46.3002920  70.8006144  56.5565491  46.2556744
  70.8738327  57.7703142  47.1570063  73.5810041  60.2192736  35.8067417
  73.5299158  60.3111124  34.8553276  74.1900635  60.9048128  36.0811782
   3.8631687  54.5818377  49.7916651   2.9439342  54.3732786  49.6251059
   3.9128727  55.5335426  49.7021055  23.9978385  51.8358946  89.2907619
  23.6538267  51.3214493  88.5605335  23.6092472  52.7032042  89.1767693
  91.1738586  57.0361614  38.0605149  90.6448460  57.2426462  37.2899652
  92.0254517  57.4342346  37.8800654  26.9837785  60.7401562  75.7843113
  26.7602873  59.8112965  75.7251692  26.4125180  61.0805893  76.4727831
  67.9888010  72.3805428  10.6328523  67.6498699  73.0158949  11.2634754
  67.4936438  71.5805626  10.8091617  77.9972601  56.6956186  34.5327640
  78.5917187  56.2519360  35.1377416  77.1734810  56.7662716  35.0150800
  61.5431595  42.3954773  17.8393984  62.2243023  42.3288536  17.1701920
  61.6863966  43.2517481  18.2425308  40.6902552  85.7127094  17.5315022
  40.3903818  85.8124638  16.6279757  40.8909082  84.7805786  17.6157403
  32.0153229  45.3346207  90.7645451  31.6129153  45.6971409  91.5537719
  31.4416592  44.6104099  90.5142206  66.4043522  75.9031820  27.0482564
  67.1194267  76.4731073  26.7652655  65.6093693  76.3840246  26.8179822
  79.7378969  47.5804758  32.8907514  79.1189766  47.1299601  32.3161221
  79.3300247  48.4289598  33.0638146  50.4409504  52.0761490  10.8015907
  49.6739912  52.5033379  10.4201198  50.8812475  52.7692461  11.2935102
  38.9699793   7.5716579  82.1951962  39.1860342   7.7170217  83.1162930
  38.0228162   7.4334872  82.1902752  91.1101246  58.5670614   3.9729300
  90.5140400  58.7859392   4.6891770  91.6976070  57.9082251   4.3430999
  61.7762518  74.6595907  21.8701839  62.4606323  75.3031683  21.6867065
  61.6960287  74.6606016  22.8240156  60.0793314  66.4944077  12.0062327
  59.3763876  65.8557081  11.8871963  60.8779287  65.9678745  12.0414007
  99.9504852  82.8265381  24.9535537  99.9139309  82.6869106  24.0072989
 100.8421898  82.5788021  25.1979446  52.8964567  99.0841579  24.8091412
  53.8462830  99.1803741  24.8784208  52.6345062  99.7472095  24.1704130
  83.3362770  55.7373285  35.3721380  82.8884983  54.9864435  35.7618880
  84.1666508  55.3826094  35.0545144  88.4482861  51.1702919  21.1525536
  88.4782314  51.1633635  20.1958489  87.7149105  50.5961609  21.3733888
  58.4490204  91.2041855  22.0862150  58.6498213  92.1288109  22.2310543
  59.1656828  90.8866501  21.5368462  55.8998013  30.7577562  41.3229895
  55.5287504  30.4176927  42.1371841  55.1402426  30.9242368  40.7647896
  93.7803459  62.9424763  45.0078154  94.3209934  63.2730150  45.7252264
  92.9922962  62.6081944  45.4361439  74.3668890  20.2153206  10.3484488
  74.7871304  20.9998751  10.7007289  75.0825739  19.7168434   9.9540508
 107.1913815  26.7585993  40.9318352 107.4461555  26.6837788  40.0122023
 106.3864517  27.2763586  40.9160089  97.7897167  60.3153181  36.4835715
  98.0102825  59.8920488  37.3132873  97.0253658  60.8548975  36.6857076
  71.9074297  48.2059717   3.4826007  71.3343096  47.5938320   3.9441749
  72.2403002  48.7855291   4.1678312 104.2239952  40.0909185  27.3188543
 103.6764526  39.5313072  26.7681623 104.2925930  40.9123373  26.8322372
  74.9219799  24.3236995  22.9229331  74.0225077  24.1194391  22.6670814
  75.4635048  23.8737011  22.2744846  57.7496767  47.0103741  13.2129419
  57.1750927  47.2795486  13.9296246  58.5704374  47.4749136  13.3766055
 103.5618305  62.2948074  25.4417777 102.9570389  61.7799091  25.9759498
 103.7459850  63.0716181  25.9698725  78.4220171  66.8393040  21.3949013
  78.7117958  65.9656477  21.6575503  78.4895325  66.8370676  20.4400897
  66.8049288   4.9709362  19.1239297  66.7984962   4.4286013  18.3352208
  66.6195107   4.3594280  19.8366082  54.7160625  51.4236546   3.0464375
  53.9623260  50.9227896   3.3582759  54.8793745  52.0657444   3.7372941
 109.9905396  57.4752283  36.6590548 109.4091415  56.9323587  36.1265993
 110.3707886  58.0979633  36.0395074  86.9187927  44.2258120  31.0435724
  86.6395950  43.3139324  30.9613538  87.6813030  44.2955542  30.4691625
  59.4770050  61.7800999  28.0746412  60.2466297  62.2841167  27.8102946
  58.7478447  62.1986675  27.6170754  70.5992508  53.2494450  42.1685219
  70.0484657  52.5101614  41.9109964  70.2826214  53.4923792  43.0385590
 100.5027580  39.2484093   3.3393887 100.8345985  38.7239194   2.6106748
 100.4451275  40.1369905   2.9882005 107.2944450  57.0771551   3.0526057
 107.5735664  57.9889727   2.9694650 107.8226662  56.7295551   3.7712121
  69.1730404  73.7833500  33.5853124  68.3762503  74.3134737  33.5672283
  69.8804331  74.4180107  33.6994767  65.9578466  72.3394775  51.1360550
  66.2584877  72.2995901  50.2281713  65.5515385  73.2024574  51.2161207
  67.8152657  57.1132898  25.3476405  67.1376038  57.6509857  25.7573891
  68.5520554  57.7112675  25.2219582  57.4717808  92.5318813   2.2731465
  57.1410036  92.2195721   3.1153321  56.7298174  92.9913044   1.8798804
  92.5230885  42.1586084  25.1000047  91.8184948  41.6378832  24.7144794
  92.1859264  43.0544662  25.1008463  79.3822432  26.9625688  24.6824765
  78.5919428  26.5341353  24.3536925  79.9607134  26.2410522  24.9294949
  75.3999138  90.5339241  24.1730738  76.2057686  90.3302002  24.6477652
  75.5965185  91.3450909  23.7044764  94.4733143  45.0243664  85.2873802
  93.5975647  45.4107523  85.2881813  94.8192787  45.2133608  86.1596298
   0.4655856  94.1034222  79.4670343   1.3034695  94.3840981  79.0990686
   0.7037283  93.5673904  80.2234745 107.2638130  56.9176292  36.1268616
 106.3112450  56.8543386  36.0572696 107.4158478  57.7402830  36.5920043
  73.1609297  40.6368256  18.9909160  73.1957006  40.3164959  18.0895770
  72.3503494  40.2703047  19.3442607  97.8344440  49.1393375  24.6086502
  98.3458519  49.6105671  23.9508915  97.0677948  48.8202620  24.1325474
  77.6373577  84.2561150  37.8425741  77.6802588  84.8744202  37.1131301
  77.8200865  84.7871304  38.6177254   9.0806866  58.1152201  15.5026329
   9.0566933  58.8574696  14.8987126   8.2865983  57.6190424  15.3039753
  54.3977451  76.3199282  20.5216646  53.9888144  77.1795559  20.6219029
  55.3344107  76.5063190  20.4572535  84.3279934  39.5137763  22.3089290
  83.7275219  40.2274418  22.0936298  85.0019836  39.9232721  22.8514099
  69.2091751  33.7844157  33.4435606  69.9201822  34.2966413  33.8286901
  68.7670755  33.3865952  34.1935730  74.9869728  49.1964483  11.3000011
  75.3334522  50.0833750  11.2023056  75.4626131  48.6804438  10.6490493
  59.5724869  25.4908085  13.4236705  60.2547836  25.3332424  14.0762651
  59.0607786  26.2158489  13.7824202  86.5501690  51.2566376  57.9128075
  87.3283005  51.0891724  57.3811102  86.6216755  52.1790981  58.1581116
  64.3189144   3.2363933  88.5908222  64.9095106   3.1177106  87.8469467
  63.5538387   2.7024725  88.3767796  56.6507816  75.7083750  32.1743369
  56.0385895  75.5437803  32.8915238  56.8403435  76.6448784  32.2314095
  90.1962185  63.0950642  16.4181912  90.5775261  62.3314333  16.8514407
  89.9686337  62.7844572  15.5418563  66.6725206  42.8985548  32.8525257
  66.2053490  42.0631933  32.8649402  67.4968910  42.7053404  32.4060750
  84.7237587  62.3008728  28.0948377  84.1884041  63.0323029  27.7872133
  85.3806305  62.1798468  27.4091911  61.3098097  48.8393688  34.0669775
  60.9418964  47.9557133  34.0624356  60.5796194  49.4015026  34.3259358
  68.4578323  45.4285574  26.3903785  67.9110098  44.8476458  26.9193006
  68.0267239  46.2812519  26.4477420  80.5319309 101.9832706  34.6655536
  81.2563801 101.4256382  34.9491596  79.8376417 101.3699341  34.4247031
  64.5329571  43.2104826  39.6635747  64.9504328  42.8570557  40.4490900
  65.1962280  43.1215286  38.9791846  42.9726887  29.0820050  15.7186484
  43.5128212  28.5530996  15.1314938  42.9790115  29.9557686  15.3278422
  54.8436832  79.0953302  29.4391441  54.0612698  78.5525465  29.3419933
  55.5672026  78.4693623  29.4693851  69.6801662  82.3620701  55.5713749
  70.5525923  81.9683647  55.5813169  69.8393917  83.2999039  55.6778908
  16.0926187   5.8776033  29.9160290  15.1589024   5.8703750  30.1266336
  16.2582195   5.0165606  29.5320821  74.1247177  57.6716852  37.1119881
  74.5850515  57.3005199  36.3592863  73.9095116  58.5651636  36.8443704
  49.8658276  78.4755898  17.0298231  50.4361534  78.3491898  17.7881002
  49.3284559  79.2341137  17.2580945  96.7528152  53.4725571   6.6470867
  97.0059586  54.3781805   6.4682370  97.2188377  52.9588604   5.9874135
  61.2716532  66.1062574  16.4025795  60.4446793  66.2814379  15.9535134
  61.3761997  65.1562405  16.3499856 109.9693775   0.5032015  18.9290380
 109.1008759   0.6804658  19.2903078 109.8438168   0.5279825  17.9804325
  90.8459377  78.6308336   9.7387189  90.7378578  78.4852839  10.6785941
  91.7934418  78.6256790   9.6029484  13.0929506   5.7928586  30.3244543
  12.8528452   6.3106751  31.0928607  12.4243176   5.1095039  30.2776670
  69.8787355  85.7163239  67.6110935  70.8149529  85.8987427  67.6914072
  69.7283220  84.9738884  68.1962395  13.4864008 103.1302071  71.8899107
  13.3147299 102.5436497  71.1532164  13.0165744 102.7357292  72.6246738
  98.7669468  43.2075691  19.8884082  98.3143520  42.4574566  20.2740526
  98.1280041  43.5892582  19.2864871  87.7268505  81.6881466  29.7716546
  88.3749962  82.1663857  29.2545199  86.9929600  82.2965908  29.8578596
  76.8234634  55.5894041  61.8622684  76.2842226  56.3199568  62.1651554
  76.2829590  54.8139906  62.0133400  75.2370691  52.3749352  37.9764318
  74.6860313  53.1509209  38.0785942  75.4245996  52.0947170  38.8722777
  96.2658501  64.5603085  32.5484180  97.1460533  64.9356461  32.5729585
  95.8192348  65.0423574  31.8524408  32.8394818  24.5341372  83.1522655
  32.6224136  24.3039012  84.0556526  33.7697506  24.3247533  83.0686569
  99.2820454  62.3083544  52.2065306  99.3497658  62.7817822  53.0356932
  99.9814224  61.6559792  52.2453976  78.1303930  65.4559422  34.1844749
  78.4627819  64.7035122  34.6739602  77.9540777  65.1128483  33.3084393
  95.1737499  77.2478151  28.4665632  96.0832405  77.5402212  28.4070110
  95.1936245  76.5310860  29.1007018  63.1494808  46.5809107  90.3104019
  62.3960018  46.2243414  89.8399162  63.7277174  45.8294010  90.4411983
  83.4835434  71.2290668  15.5409181  82.8506851  71.3743210  14.8376238
  84.0133381  72.0261621  15.5547965   1.1375745   1.0144246  33.1376290
   0.3259698   1.5199865  33.0936241   1.3789602   0.8688334  32.2228789
  72.3592424  74.9283791  63.9907360  71.6233301  74.7201300  64.5663214
  72.8839874  75.5543280  64.4898033  92.2623539  31.2668967  63.8195038
  92.4187183  30.6743622  63.0841875  92.5437737  32.1242762  63.5002327
  57.5581026  94.7005081  17.8552282  57.4455166  95.6206226  17.6165855
  57.2670269  94.2154598  17.0830691  83.0402279  76.5582132  13.7719905
  83.6442280  76.7859888  14.4787681  83.5892773  76.5267992  12.9885387
  63.2362938  77.2884798  36.4683819  63.5129261  77.7198315  35.6598997
  62.7519178  77.9621506  36.9456434  77.2011280  97.6344776   6.8043244
  77.2797441  98.3857155   7.3922861  77.9080248  97.7519989   6.1697227
  79.9563789  72.6322603  40.4551458  79.2384052  73.2189131  40.2172661
  80.7276344  73.1982803  40.4870176  10.7693219  78.6647224  54.0598011
  11.1417258  78.5345697  53.1876755  11.3428104  79.3114233  54.4710493
  35.3643990  69.6820593  39.2850113  34.6099019  70.0539112  38.8281846
  36.0927081  69.7923374  38.6737514  93.9332390  49.8238802  16.8804407
  94.8820591  49.8649073  16.7608488  93.5822582  49.7630548  15.9919918
  86.6994476  69.7786283  28.9896822  85.8648396  70.0892401  29.3406463
  87.3416233  70.0064421  29.6619511  86.6531277  94.8005390  18.5309327
  86.2721539  95.5778408  18.9394617  86.3027954  94.0677166  19.0373623
  41.7619753  31.5638661  32.1392369  41.8707991  32.3989296  32.5942755
  42.2987700  30.9477425  32.6377130  92.4067497  64.6920919  17.7687025
  92.4075603  63.8034725  18.1244981  91.5754128  65.0661802  18.0605292
  77.0209932  59.2349291  55.3086805  76.2751007  59.7477150  54.9973631
  77.6902866  59.8871374  55.5158138  69.7150993  85.6844807  42.2432804
  70.2727413  85.2543831  42.8915691  69.3946648  84.9707699  41.6917706
 107.2787476  72.3178864  14.3553030 106.8932343  73.1620646  14.5897663
 107.5947475  72.4392939  13.4599614  69.9453688  91.9596004  39.6478724
  70.3862858  91.5066814  40.3666830  69.0508413  92.0926762  39.9614763
  59.2405891  83.9616013  61.5683508  58.3762217  83.8296700  61.1788702
  59.2040777  83.4869862  62.3987913 104.3199253   1.8268667  56.8333435
 104.1768932   2.7301061  57.1160650 103.6374950   1.3253483  57.2794342
 101.5341187  97.7625275  36.1547852 101.6600037  96.8383694  36.3699841
 100.7757568  97.7713108  35.5707932  74.9333811  88.8053989  15.6337869
  75.6423140  89.3832684  15.9161258  74.3752861  88.7159157  16.4062834
 102.9287910  79.8244810  84.1197205 102.6920891  80.1544666  84.9864960
 102.3944759  79.0380955  84.0086842  35.4285789  14.6579409  91.2408447
  34.5188093  14.5887196  90.9514427  35.5819702  15.5989468  91.3257599
  39.4693255  28.2857037  90.8793259  40.3037167  27.8220248  90.8084297
  39.2967439  28.6050081  89.9936104  96.5595818  79.7705173  40.3423834
  96.3428497  78.8683081  40.5775070  97.3123646  79.6911049  39.7565055
  94.6287918  83.3755875  65.8050442  95.0990391  82.5629234  65.9912634
  95.2400875  84.0686035  66.0546255  76.6248941  22.0419145   5.1877570
  76.0599852  22.8108239   5.1110274  76.1313105  21.4363050   5.7407850
  62.6543951  93.8267803  52.0049953  62.9971313  94.3630409  52.7199650
  63.3935547  93.2789326  51.7409086  13.5784900  68.9686394  51.7501211
  13.1939757  69.3424129  52.5430107  13.6190617  68.0282307  51.9239664
  78.4629536  62.1346855  64.9040890  77.6153231  61.6970921  64.9832153
  78.6560011  62.4446487  65.7888985 108.7330341  68.8675165  35.6605411
 108.3262348  69.1403961  36.4829016 109.2638397  68.1068039  35.8967566
  65.6388235  85.9170341   9.6665913  65.4253721  85.7804203  10.5896330
  66.5861893  85.7889652   9.6183342  79.0764999  55.9602928  17.4411154
  79.9352503  55.9079647  17.0215464  78.5811567  55.2329969  17.0643997
   4.7991443  31.6653991  33.5902834   5.4693067  31.5606260  32.9149032
   4.0776914  32.1096992  33.1449318  85.7114697  57.0384121  40.8888865
  86.4062977  57.6743650  40.7185936  85.2885437  56.9125414  40.0394583
  71.3978529  92.9941368  52.1052313  72.3518515  92.9369259  52.1586084
  71.1460876  93.5147762  52.8679752  16.3180923   4.6046549   4.5790362
  15.6278861   4.8712647   3.9717758  16.4371812   5.3611183   5.1533294
  94.0538883  74.2859221  37.1003914  93.5907555  75.1121378  37.2386646
  94.9479866  74.4604397  37.3942614   5.7435364  99.4176483  20.3319263
   4.8788702  99.8079014  20.2043247   5.6693870  98.5419083  19.9527001
 108.9547157  91.3143826  42.7859879 109.2204189  90.5277634  42.3096895
 109.1222000  92.0321846  42.1752977  99.5087147  61.7357826  23.1971908
  99.4027042  61.5726423  24.1344094  99.4258976  60.8721256  22.7928710
  73.8102722  53.5088730  26.8798018  73.8122702  53.9899921  26.0523033
  72.9646778  53.0605459  26.8941474  84.1982555  83.5323334  21.8415213
  83.7247276  83.6031246  21.0126686  83.8004971  82.7808475  22.2811699
  71.5236378  73.9472198  60.1880360  71.2575722  74.7067499  60.7062626
  72.1492720  73.4843206  60.7452917  95.0224686  72.8575706  11.7996192
  94.1356945  73.1180763  12.0486259  95.4369640  72.6010513  12.6234031
   0.7687006  24.4118500  89.4868851   0.0932385  25.0542784  89.2694664
   0.3256761  23.7813473  90.0547123  66.8542480  41.9806004  19.6569979
  67.4966908  42.6855135  19.5757651  66.1026239  42.2815371  19.1463780
  81.0014629  78.8222837  35.7734513  80.9125233  79.7254658  36.0777354
  80.3987503  78.7587023  35.0325608 107.7285194  89.9081993  33.2662630
 108.0919361  90.1327133  32.4096704 107.2314739  90.6838036  33.5263157
  45.9127617  81.2170124  55.5570269  46.7485380  81.1437702  56.0178375
  45.2965736  80.7239723  56.0987377  83.9321804   4.3556592  87.8471756
  83.7871742   5.1115394  88.4162617  84.5202065   3.7891158  88.3466625
  70.1635885  57.6483011   1.3536014  70.1674795  57.9086208   2.2747153
  70.5740452  56.7835951   1.3473508 109.1324043  69.2679882  56.0791492
 108.9348316  69.3018579  57.0151234 110.0609684  69.4932747  56.0220623
  66.5002871  49.8614264  37.4466634  66.3032770  50.5581570  36.8205738
  66.3596964  50.2630901  38.3040619  96.0273266  54.0921688  21.1005783
  96.0810089  53.4160662  20.4251242  95.2799129  54.6310091  20.8412266
  77.3368120   4.6594149  90.6036568  77.7685070   4.2861164  89.8352051
  77.8005886   5.4814118  90.7632256  83.4475136  94.6690559  50.6849384
  83.4477329  94.1952133  49.8532486  84.0686417  94.1901302  51.2336206
  72.8384352  66.7959356  48.5276175  73.6278343  67.1730137  48.9160728
  72.1715784  67.4743128  48.6340809  74.9943972  69.6222496  47.1853876
  74.8924828  68.7514544  47.5695229  75.8889961  69.6306753  46.8450022
  83.5055828  42.9686117  22.4406981  83.5512543  43.5510588  23.1989193
  82.6727581  43.1856632  22.0217562  30.3497362  92.5617409  13.7291467
  29.4922686  92.3008251  13.3931303  30.6910515  91.7738724  14.1522264
   2.8893343  74.6559238  14.0993559   3.1980422  74.3065500  13.2633710
   3.4879115  75.3772926  14.2931640  79.3872404  51.3482857  38.1693673
  78.9413977  51.4024019  39.0146661  80.3080559  51.2122011  38.3925366
  59.3642330  74.2478561  20.8419871  58.7014914  74.1414928  21.5244079
  60.1844931  74.3658209  21.3210320  79.7037554  80.9774113  16.7752934
  79.0393066  81.4709949  16.2945557  80.2809715  81.6471481  17.1420395
  79.4071484  63.7745953   7.5734502  79.1137695  64.6703005   7.4065125
  78.6107874  63.3034945   7.8186226  71.3491774  62.7892494  21.4449096
  71.7429161  62.7191114  20.5752635  70.4111385  62.8786802  21.2766171
  73.6581421  60.2241659  49.3200493  73.0140638  60.6620073  49.8765469
  73.4948254  59.2905092  49.4536352  95.9394360  98.4220791  45.4495478
  95.3392982  97.9200172  44.8981905  96.2676334  99.1153049  44.8768759
  88.2397461  81.0942554  59.2200947  88.6977482  80.7154942  58.4697533
  88.6182117  81.9682598  59.3154716 102.3803997  90.8692837   7.1955860
 101.5559673  90.6206512   7.6135904 102.7330303  91.5617371   7.7545100
  94.2012119  15.4690778  14.7104144  93.8109398  15.2121031  15.5458093
  94.9543476  16.0075414  14.9534595  86.8288898  76.5243578  38.3465767
  87.0479107  77.4553394  38.3073306  87.4221325  76.1120653  37.7186465
  75.9612656  80.1409340  22.0432043  76.5786171  79.4182110  21.9301820
  75.8072186  80.1789474  22.9871607  52.8956890  75.4970980  40.2736521
  53.5753870  76.0936213  39.9599600  52.6318645  75.8583832  41.1198807
  93.0429745  86.3111210  28.7428808  93.4420490  85.9796333  29.5472932
  92.2869301  85.7421112  28.5984731 108.4930897  84.4781113   6.0893738
 109.1477489  84.6227646   5.4062033 108.9018726  84.8128223   6.8875551
 105.2172470  89.7087383  48.4908056 105.8503151  89.1972923  47.9869461
 104.3684864  89.4790363  48.1125689  40.5050945   2.8872445  86.2904930
  39.7817397   3.0198950  85.6777954  40.1123857   3.0096149  87.1547985
  98.7465858  75.6780577  23.5163522  98.7968254  75.9550238  22.6014757
  99.0710735  74.7775459  23.5121489  18.4096205  46.1424494  56.1129808
  18.5165584  46.3286638  55.1801777  19.2180085  46.4605331  56.5149307
  88.3252144  70.6234646  19.3399584  88.5491467  69.8614311  19.8741710
  88.0165195  70.2537251  18.5127747  67.7041006  78.6814880  45.6614876
  67.0711994  78.0170870  45.3890181  67.1707010  79.4470358  45.8751535
  72.4816608  75.1582098  56.8251705  73.0856228  74.5786476  56.3608694
  71.6120195  74.8262930  56.6020298  86.5416145  63.9209795  42.1584082
  85.7401085  63.5165167  42.4904060  86.2500095  64.4653654  41.4270782
  42.1001101  20.7016039  82.1622753  41.5747356  21.5006351  82.1202564
  41.6338062  20.0787568  81.6047287  56.2196159  73.7999249  20.2115798
  56.6215706  74.6686268  20.2066827  56.6554499  73.3303452  19.5003998
  92.6691341  67.8983545  67.2918320  92.9444695  67.0468950  66.9520807
  92.1751213  68.2943249  66.5739250 103.0251884  94.2350006  33.7240934
 103.5321617  93.6515808  33.1594419 103.4071827  95.1005554  33.5787535
  96.8835735  65.8970928  22.9222822  96.2800407  65.3655910  22.4031591
  97.4025059  66.3727093  22.2736454 112.5149918  81.2534714  36.4825487
 111.6065407  81.1691475  36.7720771 112.4542522  81.6622353  35.6191540
  38.6304021   3.0735600  76.7679262  37.7259398   3.0092281  77.0745897
  38.9978170   3.8089713  77.2582388  40.6452703  10.2382123  89.3360138
  41.2817669  10.3916895  90.0342560  40.5507135  11.0886192  88.9069462
  82.7267551  81.1783218  28.0393648  82.4739552  80.2709961  28.2099128
  81.8981361  81.6339970  27.8910828  78.4051132  36.2840867   4.8465621
  79.3589783  36.2701488   4.7679508  78.1634521  37.1931887   4.6694669
  91.1324978  53.8097668  25.0816512  90.6977940  53.5222244  24.2787910
  91.8944168  54.3031931  24.7779441  89.0195370  85.2968979  42.7632427
  88.7726879  84.4027138  42.9993010  88.8862324  85.8018589  43.5654116
  46.8284321  30.1969290  81.1439991  46.5315866  29.5231152  81.7556286
  46.3807726  29.9897766  80.3236866  74.3322802  64.8542738  29.2579865
  74.9412394  64.1391659  29.0735340  73.4648895  64.4624233  29.1564465
  85.2731991  61.8219376  35.4343319  84.4517231  61.7208385  35.9151530
  85.6234455  62.6613998  35.7324243  81.8945885  72.7519751  24.4753671
  81.4480305  72.1048737  25.0213337  82.1513748  73.4436083  25.0852299
  67.6319885  70.6305361  18.9039052  67.5948715  69.7086525  18.6489952
  68.5525846  70.8710289  18.7995088  47.3863554  37.7926373   1.4296430
  46.6234493  37.7126813   2.0021954  47.7967310  38.6169171   1.6911447
  74.5246029  70.8063459  54.6111345  74.5125961  70.8688593  53.6560535
  75.3566742  70.3782511  54.8126984  80.8314610  60.4338217  36.4697218
  81.4011574  59.6646404  36.4639902  80.3448868  60.3653717  37.2911763
  84.7208691  47.9876328  33.4862280  84.9843216  47.2631264  32.9188490
  83.8951778  48.2961082  33.1130052  68.9340687  74.0186882  29.6200013
  69.5711327  74.0876341  30.3310752  69.4499016  74.1432476  28.8233614
  90.0755692  79.9063587   5.5028832  91.0181618  80.0326633   5.3942949
  89.9857998  79.5037317   6.3666350 104.9382210  72.0921755  42.8375912
 105.2082443  72.0553589  43.7551737 105.7111835  72.4131966  42.3731518
  84.6613693  70.8693504  39.8918533  84.3521690  70.1636839  39.3238235
  83.8957787  71.1095810  40.4137659  76.2415886  73.1011868  11.8992972
  75.7046890  73.8924170  11.9431603  77.0196390  73.3665705  11.4089489
  60.6724310  61.8382120   5.8278209  61.6130161  61.8823242   5.6558239
  60.2998447  62.5484848   5.3054005  73.5784674  85.1918888  24.7246432
  74.4442225  84.9376774  24.4051528  73.5677528  84.9083233  25.6388140
  65.0569344  63.6884546  27.8433347  64.4835329  64.1078663  28.4848452
  64.8383808  62.7581882  27.8988028  98.0846214  92.3941517  24.5472527
  97.2517014  92.6563358  24.9393535  98.6556816  93.1527424  24.6683955
  98.7101173  77.7748251  50.9431219  98.4342384  78.6372089  51.2536240
  99.3648148  77.4890280  51.5802431  83.9656448  62.2142220  25.0006914
  84.0837955  62.7917862  24.2465758  83.0529594  62.3418283  25.2594423
  82.1265602  97.2026443  23.4411907  82.1456242  98.0512524  22.9987788
  82.4481010  96.5835571  22.7857685  90.4999065  65.6272221  66.5356874
  89.7943306  65.0587940  66.2270069  91.0390568  65.0612831  67.0881891
  70.6768084  70.1132154  32.2886705  69.8272657  70.3471851  32.6625228
  70.7339668  70.6275654  31.4834309  73.6580658  72.3800898  22.2001195
  73.0304766  71.9819355  22.8033090  73.1800127  73.1082582  21.8033004
   9.1645205  47.6400375  35.7174873   8.4805954  48.0237579  35.1686382
   8.7807035  47.6120663  36.5939212  75.5599022  82.4122238  30.5260491
  75.0881147  81.5835667  30.4424977  74.9652243  83.0647469  30.1561928
  94.6617222  59.6745157  68.1384897  95.5602932  59.4073057  67.9450893
  94.2858505  58.9293146  68.6071253  28.1828928  98.8451195  23.1023335
  28.3965826  99.7582912  22.9108071  28.7755537  98.6047363  23.8145161
  80.3329754  64.8519897  22.5013566  81.0384083  65.4806566  22.3485041
  80.7827568  64.0349770  22.7167892  84.8987293  89.6467781   1.3289283
  85.0162601  89.3755627   2.2393450  85.5073166  89.0974331   0.8348884
  78.6006975  75.6481600  59.5809603  78.7695694  75.1098061  60.3541946
  77.7841425  76.1056709  59.7813368  96.9946957  56.1272001  41.2679863
  97.8189087  56.5218973  41.5528011  96.4934254  56.0107088  42.0750761
  74.3521023  24.0970778  82.0586395  74.1486931  24.6279740  82.8287029
  74.8560381  23.3595037  82.4025249 105.2679729  68.7384033  38.3569741
 104.4180584  69.0309191  38.0278802 105.1884651  67.7861309  38.4125209
  98.2560062   6.7313170  18.4814620  98.1407070   6.8998283  17.5462925
  98.9182949   6.0413361  18.5206318  10.7523489   4.3771625  19.3533885
   9.8245704   4.5627218  19.2083836  10.8670747   3.4770745  19.0485752
  29.7742391  10.4387999  89.8233223  29.6030426  10.1089215  90.7054234
  30.5564737  10.9822059  89.9184513  95.7112885  67.8182077  20.7232428
  94.7855949  67.7579355  20.9592366  96.1777973  67.5322485  21.5086293
 108.4101295  62.0016718  57.5999880 108.8743305  62.8368282  57.5428152
 107.5343513  62.2350216  57.9078770  79.7960424  69.7662735  19.5486951
  79.4278765  69.7771406  18.6651981  80.7435894  69.7604656  19.4132578
  56.9880962  84.1757011  70.4360247  57.3120737  85.0761604  70.4570341
  56.8685293  83.9858246  69.5054960  81.0135651  91.4019966  47.7120590
  81.4008045  91.9369698  47.0191765  80.2286243  91.8824673  47.9752159
  79.5328903  16.9751978   8.7804496  78.8926220  17.0611596   8.0741239
  79.6639395  16.0313797   8.8713735  83.6133575  73.0114365  17.9373419
  84.5497131  73.1346130  18.0932462  83.5702705  72.5021648  17.1280110
  12.1404445  90.1898861  40.4803467  11.9065595  89.5287037  41.1317825
  11.3006949  90.5356312  40.1778412  88.3981609  67.8722572  30.6230807
  88.9831448  67.3275661  30.0964594  87.8104019  68.2780457  29.9858141
  89.7376347 101.1574936  20.1449728  89.4795132 100.9291744  21.0379863
  90.6919098 101.2231159  20.1808524   1.7290179  67.6523399  16.6031194
   1.8316194  68.3315897  15.9365416   0.8132228  67.3831511  16.5317881
  83.2512283  72.5753069  47.0926332  83.6484146  73.1510067  46.4391518
  83.5042667  71.6932678  46.8202066  60.3357601  78.8602400  29.8776579
  60.2940655  78.5549641  30.7839131  60.2546263  79.8118544  29.9415064
  65.4182053  74.7653103  39.5449543  66.2432861  74.7216272  39.0616632
  64.7444582  74.8003626  38.8659334  61.9605398  63.4833717  15.6154096
  62.6761150  63.9856911  15.2257204  62.3933029  62.8758526  16.2152946
  85.7427216  54.7826624  34.6773553  85.6516933  53.8396072  34.5410013
  86.6880131  54.9301624  34.7075176   2.4061394  90.5394650  67.7948570
   1.7693233  90.1693535  67.1835375   3.2120883  90.6157875  67.2841215
  71.4898348 101.7246914  27.3841286  70.7667494 101.3855267  26.8565440
  72.1694899 101.0538864  27.3184109  80.3689480  16.5127611  53.1387806
  81.0646915  15.9380770  52.8195333  79.5974922  15.9485614  53.1912851
  67.0592737  61.7653561  23.7099862  67.7462292  61.0989475  23.6950970
  67.4817514  62.5364304  24.0883851   7.8663880  26.9148612  74.3273354
   7.9985899  27.5095391  73.5890150   6.9206041  26.9223547  74.4745350
  71.7758560  57.2759295  31.3611603  70.9906721  56.7547178  31.5286708
  72.1510887  56.8953085  30.5670834 104.1538048  52.6934147  23.7076211
 105.0830555  52.8340006  23.8891554 103.8877678  53.4656334  23.2084846
 100.2072239  68.5022163  12.9468870 101.0744762  68.6668348  13.3170438
 100.0204754  67.5904465  13.1705642 101.0340118  42.4773884  18.7697482
 100.3790188  42.8476143  19.3614852 100.6652069  42.6030779  17.8954399
 109.4455242  89.3885803  63.6368132 109.2945385  89.1501808  64.5514727
 110.0496197  88.7209606  63.3118773  83.8098335  71.5625381  33.6288619
  84.6857738  71.1927080  33.5184598  83.2295227  70.8016109  33.6502194
  97.3383522  48.6421347  54.8381710  96.6211224  49.2161083  55.1071692
  96.9789124  48.1345510  54.1105747  40.9414577  83.2917309  65.4496193
  40.0962019  83.2722473  65.0008488  40.8545160  83.9944553  66.0937166
  56.0904312   1.8900375  90.8039188  55.6570530   2.7085045  91.0458374
  56.7783642   1.7801619  91.4603615  86.1855412  65.0456810  47.1313381
  86.0639191  64.4626617  47.8806877  87.1330070  65.0688124  46.9971657
   1.4990978  51.3203001  35.9418774   1.1540141  51.5986824  36.7901993
   1.1583051  51.9647074  35.3215289  16.3397467  60.1285267  88.2039070
  15.5965948  60.6708765  88.4681416  17.0980990  60.5458689  88.6125183
  89.8683739  94.7173595  59.3656635  89.0501499  94.2208767  59.3818998
  89.9008083  95.0969601  58.4875536  64.4484901  30.6743121  77.1225500
  65.1890898  30.2040315  76.7396879  64.6004152  31.5903354  76.8900537
 107.6904583  55.5768156  19.7630012 107.4997807  55.7155180  20.6907034
 107.8890705  56.4504623  19.4260752   0.5965958  94.8329353  42.7860308
   0.5142282  93.8943195  42.6173544   1.4872885  94.9389839  43.1201744
  56.2202406  66.4640951  16.0276687  56.5834808  65.5917454  16.1802769
  56.6489601  67.0193481  16.6789138 103.6623383  20.3652000  47.8398991
 102.9479504  20.5572391  47.2324514 103.6631107  19.4109297  47.9147339
  82.2213173  50.9610128  39.1328502  83.0493450  51.4137220  39.2930245
  82.4781418  50.0740051  38.8808680  91.8405914  55.3053188   7.2435433
  92.5938702  54.7154856   7.2134936  92.0504284  55.9264517   7.9409623
 107.7853775  73.3128834  37.6414371 106.9487667  73.7230158  37.4221158
 108.4104061  73.7016487  37.0295334  84.9004173  77.8650284  45.6423426
  85.6693363  77.7824783  46.2064171  85.0611877  77.2499752  44.9267387
   2.2755742  75.8461523  69.2654133   2.8621814  76.4222145  69.7555923
   2.2028357  75.0607729  69.8077393  71.6541290  88.7695312  42.5011539
  70.7066631  88.8494015  42.6114225  71.8772030  89.4386959  41.8540859
  73.1444931  68.6214542  55.8307505  73.6993742  69.1854286  55.2919769
  73.7605047  68.0739880  56.3176203 102.1581554  59.1288042  10.8306670
 102.3501110  58.7906408  11.7053270 102.9788685  59.5287228  10.5430532
  94.8950386  87.0712566  73.7192869  95.1562691  86.2845707  73.2406378
  94.0409565  87.3015690  73.3536053  80.8324432  65.9250021  15.1682830
  81.6565132  66.0072327  15.6482685  80.6813240  66.7958784  14.8009014
   5.1469004  81.6774559  15.2192271   5.6299061  82.2176266  15.8446515
   4.2318675  81.7604065  15.4876781  67.8441572  55.7622051  13.2724762
  68.6621237  56.2575817  13.3145022  68.0253506  54.9588251  13.7603104
  42.3195314  92.3279476  51.4472246  42.7082062  92.9990292  50.8861494
  41.8561935  91.7487812  50.8421469  54.4318676   4.0929878  90.8639145
  53.5146618   3.9894590  90.6104469  54.6897507   4.9359617  90.4909229
  88.2692051  60.9790707  47.3894262  89.0772057  60.7311916  47.8387880
  88.1514835  60.3056479  46.7194414  78.9118671  50.5142593  32.2804880
  79.0109348  51.4643717  32.3413277  78.2106161  50.3065395  32.8980112
  66.8999004  61.7678499  30.0729442  67.0367432  62.6118755  29.6426821
  67.6448584  61.2343311  29.7961330  75.2263403  58.4651232  58.0727434
  74.5182228  58.5502386  57.4343395  75.7764006  57.7617168  57.7279520
  97.0962620  81.4547443  63.7445307  97.8495407  81.2182999  63.2033348
  97.4723148  81.9371128  64.4808245  41.9053268   3.3017403  25.7480335
  42.2789717   4.1582742  25.9553289  40.9642220   3.4616852  25.6774974
 102.8064060  80.2718639   8.1431550 103.0298233  80.7672596   8.9311254
 103.5098934  79.6284580   8.0572492  18.1460178   1.6055124  45.0168705
  19.0039718   1.7531793  44.6189499  17.8240550   2.4827331  45.2243710
  96.8027401  81.6645050  37.7719951  97.2419834  80.8140373  37.7735806
  97.3473835  82.2164154  38.3332300  92.7218914  80.6533718  24.3437338
  92.0799541  80.1457977  24.8402429  93.5670185  80.3979492  24.7135329
  89.8658180  19.6645033   1.9137850  89.6021557  20.5097032   1.5499809
  89.3260956  19.5623064   2.6976809  66.7050743  95.3366947   4.6464372
  66.0428143  95.7927513   5.1657277  67.5362825  95.5708885   5.0593233
 104.1744995  96.5555286   6.1546570 104.8228455  97.2378826   5.9806466
 104.2139053  96.4236641   7.1019125  13.1644011  12.3767984  53.1476068
  13.4222090  13.2886147  53.0121136  12.7390528  12.3730493  54.0051031
  17.6753342   0.9675434  36.4091206  18.1785667   1.6338614  36.8771052
  18.1698620   0.8156154  35.6037688 109.4749260  64.4237947   7.4929893
 109.8502541  63.7831354   8.0970716 108.5836983  64.5619345   7.8137141
 108.4558487  86.4357090  23.1614161 107.8076839  86.6972446  23.8154078
 108.4146023  85.4794407  23.1523943  97.8324318  77.0696878  42.8794384
  97.4955463  77.0300627  41.9843531  97.0518684  77.1655512  43.4251118
  89.3715000  66.1458826  28.7565732  90.0403118  66.8299389  28.7251544
  89.6517849  65.5066109  28.1015873  76.4571810  77.6280308  41.5128183
  76.0494661  78.2165003  42.1481943  75.7208061  77.2219658  41.0555506
  63.5650969  87.1789074  40.6123590  64.1274166  87.9040813  40.3400469
  62.6788044  87.4689770  40.3965378 103.8128853  78.1471586  53.1249571
 103.5523033  78.5211945  52.2832775 103.2137394  78.5421753  53.7583780
  45.2696514   0.8944742  31.3070178  44.5887470   1.5279081  31.0803843
  45.1595783   0.1869455  30.6717849 106.9392872  88.0188274  47.0209980
 107.7868366  88.4114265  47.2301674 107.0357609  87.0977306  47.2628498
  61.5901852 100.6149197  24.9268818  60.7785463 100.7921600  25.4023409
  61.3022470 100.3240013  24.0616131  25.1549053   1.8746622  32.3811889
  24.8778939   2.1967256  31.5234184  25.9808850   1.4216338  32.2116232
  78.4730673  87.9694271  44.0282059  78.6704302  87.6123047  44.8940849
  79.3275261  88.0618477  43.6067915  10.6761062  74.0741777   9.5671904
  11.3449049  74.1298723  10.2497149  10.2852631  74.9476099   9.5430005
  98.0802441  69.1577625  20.0237966  98.4595776  68.2927418  20.1789522
  97.2182274  68.9775133  19.6487391   8.6985987   2.0453651  34.2649508
   8.0308074   1.5042034  34.6861744   8.4365952   2.9448992  34.4609714
  26.1559844  87.7794456  45.6923723  27.0826149  87.6068592  45.8591127
  25.7735801  86.9140911  45.5469084  33.7556243   8.4032172  21.1765933
  33.0386829   8.7095016  20.6212401  33.5801315   7.4705845  21.3016105
   5.8653384   0.6709947  63.6021471   6.2662458  -0.1804573  63.4274054
   6.4481688   1.0839050  64.2393637  18.7060678   7.9456711  34.5983982
  18.4101725   7.9839683  35.5079103  18.2673931   8.6822110  34.1725993
  11.9009566  10.5690062   6.3286740  11.3257980   9.8137414   6.4511532
  11.3590944  11.3229501   6.5614504  76.4938593  85.9041309  19.5017540
  76.4358616  85.2075863  18.8477695  77.3847342  85.8365726  19.8452687
  91.1970234  86.0994625   6.3295138  92.0781136  85.8646393   6.6206765
  90.6147957  85.6569481   6.9471139   4.4572136  92.6698685  41.2580013
   4.9456084  91.8850422  41.5065050   4.7642308  92.8732872  40.3744888
 104.0172958  68.2697296   4.7071785 104.8079967  68.4364891   4.1941264
 103.8626385  67.3300934   4.6102542  78.6873579  61.9256115  22.8536081
  78.3786726  61.0197353  22.8719735  77.8989553  62.4501801  22.9931736
  81.5050411 103.5399246  29.9591422  81.9318008 104.1051579  29.3152356
  80.8622265 104.1061592  30.3862143  14.5364559   5.2518505  14.0319657
  13.6100900   5.1783270  14.2614675  14.5444000   5.2838576  13.0753338
  96.4473629  79.6654081  33.9989591  96.0005283  79.7832298  33.1606936
  97.0605087  80.3987694  34.0486979  96.3569641   6.6585183  20.5311060
  97.0307159   6.2517375  19.9862957  96.6307449   7.5724900  20.6080890
  97.9061985 102.3096180   6.4493805  98.0365562 102.2894764   7.3974478
  97.6487446 103.2123375   6.2621379  73.2683992  76.0538197   2.7190965
  74.0577555  76.2965155   3.2030839  73.3106136  75.0997019   2.6550019
  39.1945124   8.8844615  49.4140530  38.3367801   9.1774738  49.7217369
  39.3674183   9.4207197  48.6402559  90.2937794  68.0916405  51.7396164
  90.5457783  67.7138901  50.8969831  89.3566513  68.2664061  51.6530848
  84.8188877  66.1251688  44.3498468  85.4284954  65.5977392  44.8660088
  84.3610096  65.4908514  43.7982798  77.6866341  92.9658604  61.4023638
  77.9533863  92.4925709  60.6142855  78.4346581  92.8862667  61.9942713
  45.7642078  17.5191450  79.2073536  46.6907978  17.5541103  78.9697790
  45.5710268  18.3927667  79.5475006  87.0800304  76.5892363  32.6627111
  87.7210426  76.9446611  32.0470691  86.2571144  77.0164156  32.4249005
  30.3323984  61.5948915  88.8835144  30.9238791  60.8742428  89.1004276
  30.6354094  61.9048452  88.0300903   6.3007545   6.8322051  25.9301138
   6.7103297   5.9707713  26.0101938   6.8497342   7.4087632  26.4615607
  86.9899368 100.0821877  22.2014451  86.8777657  99.1521072  22.0049572
  86.3527203 100.2593517  22.8934002  82.7707195  99.8377514  34.1461253
  83.5550499 100.1980591  34.5599294  82.1856403  99.6363544  34.8764324
  67.8510427  80.0148106  34.2158198  67.9556847  80.6468010  33.5045767
  67.1706724  80.3922081  34.7734046  98.1815052  49.8539543  47.1957874
  98.3641052  48.9634371  47.4955702  98.9952946  50.1381683  46.7796135
  71.9168568  94.9695778  35.7345676  71.0653019  94.5582771  35.5865169
  71.7566395  95.6088161  36.4287829 106.9006062  83.4190941  18.0432415
 106.3866615  84.1821194  17.7788663 107.7147102  83.4945202  17.5454736
  65.7936811  65.5479288  31.0874224  66.4624500  65.8900928  31.6806364
  65.9974957  65.9464312  30.2413201  66.2046003  14.9310625  85.0663567
  66.9496107  14.4952834  84.6524811  66.2985086  14.7328174  85.9980774
  74.5071268  83.2696629  22.4586511  75.1704884  82.8082085  22.9717255
  74.3448830  82.6984882  21.7078733  14.0558565  99.2783165  21.2962174
  14.0354645  99.5466900  20.3776360  14.5162368  98.4391212  21.2903929
  24.5060802   9.7450376   2.5422993  23.9328623   9.9729502   1.8103787
  25.0487709  10.5226779   2.6726618  87.7588367  63.5263395  74.4201851
  88.2557201  63.0861378  73.7305737  88.4182453  64.0058661  74.9216557
   3.3960843  75.6533957  31.5142751   4.2856565  75.3203917  31.6325974
   3.5090017  76.4716148  31.0305405  90.1140213  68.7719727  28.0055451
  89.2483044  69.1366434  27.8217721  90.7045174  69.5241880  27.9640126
  99.4519138   1.6327602  31.0150647  98.8889408   1.7153630  31.7847848
 100.3083134   1.9419181  31.3104129  71.9226646  24.2859840  60.8768702
  71.3214254  23.5411811  60.8734894  72.0208073  24.5103717  61.8022108
 108.7378216  56.4272833  34.1201878 108.0382919  56.3389826  34.7675610
 108.2947922  56.7344189  33.3292198 102.2662258  96.2576580  30.6709790
 102.7833080  96.2601662  31.4764953 101.8374252  95.4019070  30.6642818
  70.0213194  71.0213566  13.7275827  69.4802666  71.7003632  14.1306245
  69.3930435  70.4235840  13.3224070  97.0507050   6.5905118  38.6865163
  96.7513466   7.3547441  38.1940031  97.0554638   5.8794415  38.0457449
  29.3647361  75.3058624  39.7523570  28.4642291  74.9825096  39.7246790
  29.3009806  76.1550188  40.1895094  82.6457310  73.4395552  49.5291281
  82.7001476  73.0122328  48.6743355  83.0551815  74.2944574  49.3960238
  90.7444954 102.9754448   8.4904563  90.1341343 103.6993599   8.3503193
  90.4025555 102.2653103   7.9472935   4.8785579  72.0234871  33.3749819
   5.6586587  72.3768616  33.8025331   4.5189536  71.4023256  34.0082860
  90.2234077  59.5041227   9.2742318  90.8434105  58.8751221   9.6432704
  90.1924896  59.2909431   8.3415854 110.1039028 103.5690689  17.3624098
 109.5702934 103.8433170  18.1082511 110.8277416 104.1950893  17.3426962
  45.6062977 105.9295441  24.4531250  45.8986657 105.9255441  23.5416746
  45.1209252 105.1105477  24.5525599  25.6293511  78.4819698  39.9517632
  26.0297108  79.3138123  40.2047062  26.2974024  77.8251505  40.1480484
  46.7696333   6.4111543  34.0051293  46.2705421   7.1674550  34.3135905
  46.1936283   5.6632692  34.1636086 106.9372749  49.9182796  48.5599613
 107.2307587  49.1539192  48.0641317 106.8358040  50.6060553  47.9020119
  85.6346893  73.9015913  15.7364678  86.0785484  74.4914198  16.3458276
  86.3047123  73.2643747  15.4889798  93.6239433 102.1969891  16.4095664
  93.7440872 101.4079285  15.8811879  93.1440067 102.7968407  15.8385420
  75.8449078  76.2353516  52.2777748  76.5087652  76.8670368  52.5543642
  75.1307249  76.3483334  52.9050016  85.8842468  67.7732754  42.2984982
  85.4180527  67.2654915  42.9626179  85.5533504  68.6653519  42.4030781
 104.1593933  85.7675934  10.3057826 104.8498249  85.1369667  10.5103564
 103.7453556  85.4213810   9.5152491  83.6925125  78.3711433  58.4959745
  83.8031006  77.6894999  57.8331327  84.0015984  79.1710854  58.0707836
  84.0132523  75.5919743  56.2070227  84.0987682  76.2198687  55.4896212
  83.4284115  74.9157763  55.8650494  89.8393536  82.7042294  71.2547493
  89.1043663  82.5051308  70.6747675  90.6142235  82.4399090  70.7588148
  60.9956980 103.0264568  31.2294912  61.1737776 102.6082706  30.3870893
  61.8285418 103.4269714  31.4788747 101.8233299 104.0680313  37.9496717
 101.3130569 104.8562336  38.1356668 102.0054340 103.6918545  38.8108110
  75.7888699 101.4293575  21.2400985  76.1634207 102.0948219  21.8172431
  76.5472603 100.9638405  20.8874369  75.9822035  58.9004278  46.1911535
  76.6527843  59.5450068  46.4171505  76.2117004  58.6162043  45.3064060
  78.6890984  73.7203979  37.3966146  78.4692240  73.9387560  38.3022666
  77.8445244  73.5506058  36.9793606  97.8174114  87.4426842  67.8331804
  98.5140800  87.4838734  67.1780539  97.8401947  88.2985592  68.2611799
  99.5301247  80.9846210  16.1690903  98.8405514  81.1765862  16.8046010
  99.2139149  80.2136326  15.6981182   9.9342179  13.1012547  54.2010975
   9.8037994  14.0293503  54.0065145  10.6827354  13.0844510  54.7974777
 101.0418606 103.3948135   2.6803571 100.3089523 103.0587578   2.1644627
 101.4577484 102.6128006   3.0433095  14.3469739  91.1956596  24.0831685
  14.1176498  90.2893543  24.2887211  15.0187337  91.1248302  23.4049702
  95.1153183  90.4690552  56.0067129  95.5427647  89.6197605  55.8962059
  95.2605152  90.9202766  55.1751184  16.4514589  32.1007562  17.2362602
  17.3140335  31.8016171  17.5238597  16.3972342  31.8297267  16.3198352
  16.1128545  72.5207615  11.6905773  16.9010735  73.0100107  11.4548278
  16.2485600  71.6516542  11.3131237  89.7189236  11.1955786  25.9614587
  90.1659393  11.4749444  25.1624775  89.5635891  10.2596736  25.8342481
 107.0935726  49.7782993  19.1207290 106.9908810  48.9414310  18.6675942
 107.6035023  49.5663357  19.9025679  29.2973590  30.9724545  79.0881348
  29.1518521  31.8729401  78.7979841  29.9290085  31.0502982  79.8031092
 108.5777473  21.9646192   8.2856530 109.2755795  22.5211239   8.6314332
 108.5237026  21.2361026   8.9041793  80.2540970  84.4225216  45.8761549
  80.0975227  84.7713947  46.7536545  80.1895714  85.1844978  45.3004313
  86.2510014  62.7024794  48.4542418  87.0425892  62.3081064  48.0880785
  85.7184887  61.9571209  48.7319422  93.3734703 102.3326492  26.1886406
  93.1454468 102.5175095  27.0997214  94.0249634 101.6334057  26.2419367
  91.4311981  92.7343845  45.7508421  91.9542503  93.4664631  46.0775137
  91.3932991  92.1208858  46.4846039  80.9927177 101.4262295  56.1196375
  80.3360844 101.8211174  56.6933393  81.1810303 100.5773544  56.5198612
  50.6484890 101.4683247   6.5761918  50.6564379 102.3909760   6.3214612
  51.0334301 101.4584732   7.4525225   2.5541890  88.9667988  47.7469254
   1.7672458  89.1529179  47.2347593   3.2213956  89.5469666  47.3802185
  10.7459188  99.7682667  73.9311361  10.6474149  99.4987679  73.0179548
  10.3870511  99.0386581  74.4362307 104.2678547  85.0290966  27.6851940
 104.5493603  84.1433811  27.4560761 105.0339508  85.5762196  27.5120282
  81.9349194  89.5291901  87.1887207  82.0265865  89.4396305  88.1373024
  82.8160381  89.7432804  86.8820953  90.8904076  64.6756601  38.3338571
  89.9764347  64.9032545  38.5044122  91.0979271  65.1183653  37.5109482
  57.6907349  77.6701117  58.3620358  56.7876196  77.5026131  58.6313963
  57.6107502  78.1044722  57.5128222  47.5333118  75.9059763  20.5321717
  47.6498604  75.6237793  21.4393735  46.6591597  76.2954950  20.5129266
 111.5531289  77.1142006  38.5917926 110.8795107  77.4991655  38.0311942
 112.2491148  77.7709150  38.6154222  89.7160530  51.3041925  69.1915321
  89.9441528  52.2038937  68.9575768  88.8004112  51.3529491  69.4662476
  42.5005245 101.0018063  38.5403419  41.7584562 100.6077003  38.9988685
  42.1008444 101.5626717  37.8755808 111.6078186  87.7870846  61.5873814
 111.6679096  86.9744873  61.0850811 111.3604450  88.4496403  60.9423542
  60.7360697  90.1138020  11.7058861  61.6264486  90.3285980  11.4278209
  60.7062817  89.1571140  11.6959465  27.6191235   3.5045144  41.4515734
  27.7255177   2.5730252  41.2585974  28.4576392   3.8968250  41.2082338
  98.1827927  75.9080791  32.9156327  98.5962391  75.2909946  33.5193682
  98.6071205  76.7457199  33.1014752  80.0246716  87.9221535  14.5725036
  80.0220776  88.8126755  14.9234915  80.7408237  87.4851608  15.0333607
  92.9411125  71.5578318   1.9419143  93.5067272  71.3687038   2.6906079
  92.1010876  71.8002367   2.3315521  93.6091518  88.6430645  18.0683136
  92.6889515  88.5931683  18.3270907  93.6627579  89.4289684  17.5245154
  86.7247963  49.8100090  46.7516041  85.9846115  50.4151726  46.7053556
  86.9965267  49.6939421  45.8411503  92.4534416  90.1580715  37.9260230
  92.7557564  89.3986797  38.4241819  92.0894527  90.7480621  38.5860682
  63.6793280  43.7315750  28.5381937  63.6414719  43.2757854  29.3790579
  62.7893543  44.0563869  28.4015393  64.8727322  87.9170799  71.9104719
  64.6078491  86.9999123  71.9801903  65.5627012  87.9173470  71.2470102
  88.6396027  83.7886238  36.7122126  87.9415512  84.0228271  36.1005640
  88.9935112  82.9681587  36.3689637   2.5808385  54.2211962  46.8398380
   1.7861313  53.8883257  46.4228630   2.3046434  54.4614267  47.7242804
 105.9014225  88.9812374  38.4460878 105.4338551  88.6540222  37.6776195
 105.3815365  89.7282219  38.7426758 100.7959747  79.3647003  57.7152205
  99.8840523  79.4788599  57.9827881 101.2999344  79.5022392  58.5173035
   4.1803497  87.2552872  18.7436998   3.6065984  86.7862701  18.1378400
   4.9148747  87.5447083  18.2024586 104.0597343  84.6239853  45.7420444
 104.0407944  84.3124008  46.6469097 104.8786259  84.2783642  45.3868055
  77.3508501 102.7848053  44.4815254  77.0284939 102.4650383  45.3241777
  78.1297779 102.2565651  44.3069792 103.4655476  95.4653263  55.0316286
 104.0509605  96.1794376  55.2837563 102.6866531  95.9037495  54.6890640
  89.8736668  56.7487478  50.2391529  89.2815208  56.7462635  50.9912062
  89.9086285  55.8341885  49.9588108  10.0472867  65.4480886  54.2836666
  10.7203889  65.5771780  54.9518728   9.7582060  66.3329649  54.0608215
 102.1894741  95.2746296  37.0776105 101.2551594  95.0683880  37.0501757
 102.5942993  94.6294117  36.4979172  33.5669327  11.2511075  31.1582017
  33.5600019  12.0607340  31.6687775  34.4803691  10.9654534  31.1745405
   1.4391828   8.0625278  43.6678553   0.8535662   7.9532057  44.4170761
   0.9166317   8.5392988  43.0229807 111.6071796  22.3495555  22.5306010
 112.4341297  22.2496843  23.0022073 110.9633541  22.5381541  23.2133508
  85.6098080 101.8114090  10.8323431  86.4591885 102.1204281  10.5172598
  85.0233936 102.5582600  10.7116163  83.7718582 104.2663860  42.6208258
  84.6040726 104.6561241  42.3529720  83.6938095 104.4832897  43.5498524
  71.7600107  78.7013912  65.3872633  70.9381485  78.3366680  65.7155275
  71.4923763  79.3279457  64.7149324  70.0449848  73.5971689  56.0970259
  69.7233820  73.8113594  55.2212811  70.6785822  72.8940487  55.9541655
 109.6432590  72.1858788  39.2863464 108.8864613  71.8135834  39.7389913
 109.2652035  72.7392101  38.6028743   0.9409650  75.9824562   1.5347199
   0.1524454  75.4802418   1.7402753   1.0120658  76.6186094   2.2463945
  98.8713360  71.9326067  11.2813258  99.7953606  71.6841793  11.3079238
  98.4175968  71.1377668  11.0010159  85.6006145  74.3408918  36.1488128
  84.9793148  73.6749411  36.4433002  86.2207222  73.8630629  35.5980134
  83.8654804  64.6089697  49.8057032  84.7575569  64.6953058  50.1418495
  83.7816238  65.3150320  49.1648626  37.2350478  74.0619087   3.6957648
  37.6109648  73.7205219   4.5071653  37.8214765  74.7743511   3.4412789
  83.6665821   3.3880255  85.1900196  84.1262436   4.0158024  84.6324921
  83.5839653   3.8325793  86.0336971  92.9813862  85.3239727  43.3069706
  92.2386169  85.5555534  43.8645506  92.6102638  84.7434425  42.6425266
  98.9049625  70.8789015  58.3873463  99.3076611  70.5213928  59.1787100
  99.0903378  71.8171310  58.4271717   5.8811653  78.6484957  47.2491026
   5.5399531  79.4895935  47.5530195   5.7833087  78.0644798  48.0011559
   7.2248793  65.0448275  10.1315808   6.8674874  64.3129826  10.6344819
   6.6627765  65.1016235   9.3588936  93.7999821  55.2509975  58.8415909
  93.3202553  55.5192137  58.0579185  94.7079182  55.4951382  58.6619043
  37.9365373   0.6454560  91.6140938  37.4533176  -0.1379257  91.8768501
  37.3623419   1.0810071  90.9841537  85.3312492 105.5450153  86.3372135
  85.8831310 105.0474453  86.9406033  85.9273052 105.8239651  85.6421280
  46.7416239  40.7279110  70.2287626  46.3045692  41.5621614  70.0577593
  47.5744915  40.9721613  70.6323719  22.6562285   3.7957236   8.6977869
  23.5482883   3.6634851   9.0186834  22.5576568   4.7465950   8.6492139
  97.2776031  50.9857178  30.2042747  96.4356327  50.9981012  30.6594348
  97.4397945  50.0593996  30.0258040 100.4358578  78.7926149  39.5736909
 100.3153038  77.8433704  39.5988750 101.0161781  78.9406252  38.8269949
  10.4564953  75.6819344  14.6584117  10.7828820  74.8211241  14.9205375
  10.6417966  75.7329845  13.7207079   9.5894921  14.4954503  49.5078278
   9.9778771  14.9435997  50.2591896  10.1533294  13.7353075  49.3646336
  97.6398754   2.0572567  32.7717257  97.5881481   2.9384172  32.4014401
  96.7640877   1.8924977  33.1211448  83.4044552  77.5050688  64.3613958
  82.5523949  77.4048996  64.7858810  83.1990337  77.8361034  63.4870672
  82.8478909  72.3616934   7.4750215  83.1546497  72.7019930   6.6345859
  83.5559750  72.5617409   8.0872554  73.3945274  72.9271746  41.4761162
  73.2658148  72.1787119  42.0587540  73.0287838  72.6440191  40.6380892
  50.1822519  17.2177637  71.3810158  50.0370932  18.0522788  71.8268251
  49.6049833  16.6016805  71.8320513  97.4223900  65.6837797  88.2590103
  96.9508648  66.2683487  88.8524532  98.1090450  66.2315702  87.8786755
  96.2589264  94.5862389  21.9562674  96.7157650  95.2070713  22.5238085
  95.6316471  95.1221848  21.4709663  35.6800294   6.9230038  69.8968410
  35.7872319   7.0717090  68.9573574  34.9062157   7.4343133  70.1335001
  79.2618418  58.3173752  44.9309111  79.0008831  59.0936470  45.4264164
  80.0207996  57.9755116  45.4035091  17.0411599  85.0950146  40.3263140
  17.8468037  85.4833508  40.6674385  16.4126778  85.8169174  40.3167248
 100.0920391  55.6685781  47.1511126  99.8471546  54.8765039  46.6726923
 101.0150719  55.8025932  46.9359779  24.6351194   6.2334663  40.4592752
  24.1608381   5.5114174  40.8715057  23.9814520   6.9262719  40.3645611
  90.1073456  60.4005909  31.4725018  89.7448635  60.1968002  30.6103492
  91.0555935  60.3519583  31.3512325  96.6646767  21.3314676  33.5178137
  97.2425652  22.0687938  33.7143326  95.8492088  21.7378736  33.2244110
  85.5379391  64.7375965  26.1780930  85.7491970  65.5364084  26.6613221
  84.6686554  64.4899273  26.4930987  82.6840878  31.1394048  84.1877651
  82.2338009  31.9804192  84.2662907  83.2248497  31.2295961  83.4031200
  37.5871491  38.7301993  84.0203667  38.1965327  39.1633034  84.6181202
  37.9361176  37.8442097  83.9230156 102.2678852   1.5250354   3.3405825
 101.4365768   1.7369999   3.7651119 102.9317570   1.7259301   4.0002370
  60.1704788  60.2022982  85.3780079  59.4156456  59.8116732  85.8183098
  59.7946548  60.6874037  84.6433926 102.4847698  88.1209660  43.0247021
 102.9013538  88.3459377  43.8566160 102.5256252  87.1653843  42.9870701
  82.7929688  86.2841320  40.4553127  83.6181641  86.0464382  40.0324821
  82.6991653  85.6532860  41.1690855  24.3108487  70.3478003  66.6070366
  23.8308835  69.5364666  66.7731810  25.2308488  70.1095200  66.7212868
  92.6136398  57.4814129  69.1485977  92.6097012  58.1498957  69.8336840
  93.1725216  56.7861080  69.4956207  15.4633129   0.4698985  34.7024298
  14.6186280   0.2747135  35.1081896  16.0291076   0.7167399  35.4339862
   3.1982759   9.3657219  22.6448798   2.6170698  10.0879323  22.8832984
   3.2402563   8.8222986  23.4317470  68.2168961 101.4775753  29.0372181
  68.1445789 102.4097538  28.8321781  67.6717281 101.0448170  28.3801413
  74.0974855 101.7437077  10.8083284  74.7789812 101.1898232  11.1891294
  73.8125658 101.2698650  10.0269687  95.5059528  93.8065815  11.7096198
  95.4465675  94.0528488  12.6326895  96.0694885  94.4746304  11.3192785
  89.5017624  88.0054283  62.8175354  90.4436970  87.9271507  62.6663017
  89.1012764  87.6313400  62.0327425  15.2702367   8.6433494  27.7231860
  14.4359112   9.1124880  27.7166271  15.0376272   7.7442288  27.9549336
  76.6219139  95.3382587  52.3145437  75.8031368  95.5208397  51.8535709
  77.2877359  95.8134937  51.8174791  -0.0530509 101.9971657  27.7236962
  -0.2541598 102.5312328  28.4921741   0.8836662 102.1299458  27.5782228
  67.1484709   4.1508657  28.7000680  67.3324203   5.0417227  28.4021282
  66.3725567   3.8881397  28.2049251  92.0821381  65.7351542  36.3164496
  92.7796268  65.0820637  36.2597847  91.6230869  65.6685781  35.4791546
  68.9195871  89.3051720  66.5631914  69.0567493  89.5195484  65.6404448
  68.4163380  88.4910870  66.5477085  88.0231571  91.0444736  35.1536393
  88.4060287  91.8688583  35.4536819  88.5670090  90.7844067  34.4101191
  84.1439152  81.8710136  34.5793796  83.7797070  81.1515808  35.0951314
  83.5409164  82.5998592  34.7257090  76.6710186  86.6337395  29.4259024
  77.0624828  87.4623680  29.7022390  76.6942453  86.6650391  28.4694958
  13.1685436   0.0382004  21.0022187  13.8081908   0.7320751  21.1622858
  13.3771372  -0.6341233  21.6508341  93.1682968  27.8150129  24.9482131
  93.4096241  26.8960094  24.8323512  93.7135983  28.1160426  25.6750274
  72.4920940 105.3141785  54.6474886  72.2662735 105.6288052  53.7721300
  72.8577232 106.0799789  55.0903177  99.2176723  69.8274803  48.8814020
  99.1780186  70.6225586  49.4129229  99.9415016  69.9811459  48.2742119
  82.7324295  52.6654148  48.5680914  83.2286072  52.7247047  47.7516842
  81.9539356  52.1578169  48.3389091  26.2477016  43.6735392  90.1694584
  26.3224578  43.3776331  91.0766983  25.3790498  44.0723705  90.1184177
  71.4320326  74.5775700  30.5018926  71.9876146  74.6960163  29.7314787
  71.3748550  75.4496574  30.8923149   7.4585146  15.0730038  12.8763890
   8.3118868  15.1004016  12.4436796   7.3078501  14.1438615  13.0502498
   2.1975334  81.0451698  29.4104075   1.9259971  80.9579372  28.4966850
   3.1296796  81.2577343  29.3640113 107.0302773  79.1898441   7.8916687
 106.4211655  79.9181080   8.0135351 106.9565487  78.9687252   6.9632816
 108.4585762  88.8868904  38.4911537 107.5271034  89.1072178  38.4837794
 108.7881660  89.2117119  37.6532435  71.7696333  97.3544216  42.7380896
  72.0936441  98.1844711  42.3884201  72.4965763  97.0141602  43.2596302
  81.8639374  90.8681488  35.6611323  82.5194645  91.2042999  35.0499654
  82.3746014  90.4431057  36.3501906  20.2318811  11.2216437  48.2774353
  20.6644416  11.0844588  47.4346399  20.0622916  12.1631658  48.3091640
  36.2426591  18.1116903  36.0671473  35.5718255  17.7697957  35.4761124
  37.0696402  17.9346144  35.6188416   3.1424364  99.4501019  37.4668670
   4.0789706  99.6274471  37.3792076   3.0959243  98.5282040  37.7201724
   2.2970785 105.0774097  20.0132561   2.3870780 105.3254128  19.0931332
   3.1840354 104.8423672  20.2858233 100.0243568  80.0399590  31.5186310
 100.4717731  80.5494308  30.8429837  99.1144466  79.9987793  31.2243533
  34.7044110   2.6762879  37.0079565  34.7819304   2.3246080  36.1210823
  34.9065375   3.6072701  36.9149566  66.4084148 101.9514656  57.1774292
  67.2788429 102.1823978  57.5018597  65.9211397 101.6952515  57.9604673
  12.8920400  87.2375774  24.9749517  13.2482958  87.8802109  24.3614888
  13.6615944  86.7902660  25.3269863  68.9930439  93.4873009  50.3437853
  68.7606478  92.7446365  49.7864103  69.8245049  93.2346249  50.7451057
  13.6898041  68.2063198  12.3198831  14.2077422  68.4136295  13.0976963
  12.7946186  68.4489155  12.5565672  17.4139059   7.0498872  73.1186676
  16.7197311   6.4052832  73.2559204  17.5700212   7.4222213  73.9865541
  80.0352764 101.1741543  29.1200590  79.5733547 101.6386604  29.8179770
  80.9485054 101.4443684  29.2161512   0.1702768  19.3840635   4.3637878
  -0.2822607  19.5519459   5.1903820   0.7707579  18.6652470   4.5611697
 103.1154728  72.4732399   8.4980780 102.9358578  72.1339655   7.6212287
 102.3285580  72.9664564   8.7298918   4.8944783  88.4775162  34.4599867
   5.2695477  88.9410210  33.7111735   4.2718318  89.0982246  34.8384857
  91.8706608  72.7969885  41.7954397  91.5980434  73.1835127  40.9632683
  92.0962238  73.5471821  42.3454952   2.0960531  16.5414107  60.2718925
   3.0086884  16.5074348  60.5585527   2.0560223  15.9400022  59.5282936
 102.7660465  78.1599617  41.6729927 103.2809162  78.7016487  41.0748959
 102.5051498  78.7580061  42.3733521  78.3750677  81.8106747  45.0116348
  77.7124500  81.3755512  45.5481339  78.0362606  82.6968479  44.8845863
  83.0056477  32.9635119  24.1525006  83.7770557  33.5268664  24.2141747
  82.3913956  33.3278847  24.7898054  76.1883736  98.6713505  65.0528145
  76.1392784  97.7409172  64.8334694  77.0039701  98.9696217  64.6502399
   1.0144174  76.3540983  72.6852131   1.4280969  76.8514442  73.3907223
   1.7449716  76.0471678  72.1482611  51.5847397  33.2963896  57.2627592
  51.2296677  33.8133430  56.5396309  52.1083450  32.6173854  56.8372917
   6.4712256   9.9584955  32.2056055   6.5308148  10.7241607  32.7769518
   5.8755374   9.3645757  32.6623845  71.2173223  76.8243074  70.8454990
  71.3730192  77.4152470  70.1087618  70.3242159  76.5064526  70.7129860
  36.1010766  26.2644744  51.3020039  35.6398869  26.8946791  50.7484913
  36.9948673  26.2540102  50.9595680  84.6333408  71.2268066  29.5702457
  84.2042446  71.8316555  30.1754427  84.0711403  71.2240601  28.7955546
  98.8581753  60.6079578  18.9372540  99.0165520  60.1822710  19.7798336
  99.3141174  61.4469957  19.0033555   1.5464117  65.9245491  61.1700487
   1.0013509  65.8903456  60.3839397   2.3562385  66.3456917  60.8818626
 101.8461418  17.6440835  30.3013706 102.0234966  16.7041266  30.2659011
 101.3685989  17.8284085  29.4925356  34.2311835  70.7058620  87.6664543
  34.9776673  71.0265684  87.1603489  33.9109015  69.9528360  87.1698666
  19.5953131 103.7688255  77.9998493  20.0000191 104.0863132  77.1926022
  19.2281830 102.9166889  77.7646542  14.0597463 100.0625515  18.8331151
  13.6163759 100.9108353  18.8254654  14.3282461  99.9244308  17.9247856
  28.7439537   5.9911728   6.8326330  29.3914223   5.2951330   6.7206389
  29.2436051   6.7291439   7.1818858   9.9162620  59.7589874  21.9285154
  10.6874311  59.3721056  22.3430634   9.3900281  60.0849533  22.6586223
   2.1300483  66.3358164  43.9140463   2.3628767  66.8405914  43.1347990
   2.9705468  66.0723352  44.2887068  37.1957636  18.1514406  56.5936899
  36.9346499  18.4797037  55.7332897  36.5167212  17.5174630  56.8243456
  58.8331556  17.4598098  29.5819497  59.6730137  17.8851652  29.4089174
  59.0674019  16.5900898  29.9059057  40.1386213   9.0348125  22.0446944
  39.4520783   8.6035794  21.5358448  40.8734131   9.1143692  21.4364314
  69.7149420  18.0751431  11.3590920  70.3324890  18.6467814  10.9029162
  68.9774036  18.6449480  11.5772474  51.7932129  27.5162315  16.3450503
  51.5313530  26.6186070  16.5498197  52.7481842  27.5078154  16.4097762
  46.0396576  48.9354229  16.3928056  45.7930374  49.6583462  16.9696879
  45.5430269  49.0900803  15.5892694   7.7356130  92.7819252  51.5055609
   8.2483172  93.0629730  52.2634411   8.1631666  91.9773388  51.2121868
  35.4863381  33.0518293  20.9196568  34.6633935  32.9804230  21.4032841
  36.0761118  32.4389243  21.3586831 102.6362991  26.4927220   3.7662491
 102.2471714  26.0043645   4.4917321 102.8969860  25.8199811   3.1372097
  13.7608325  78.3826971  27.9923820  13.5270274  79.2689848  27.7165937
  13.1578624  78.1882286  28.7099051  53.5843182   1.1180858  20.0079775
  54.3374777   0.5357203  19.9088240  52.9901361   0.8635137  19.3020189
   9.0336955  83.3562851  66.5742254   8.4564120  84.0476131  66.8983269
   9.8793113  83.5386848  66.9839764  72.7722216  57.7588177  16.1489558
  73.6994982  57.5215340  16.1585379  72.7620316  58.6738253  15.8680928
  47.3949957   6.0976642  66.2552166  47.6596737   6.2759757  65.3527832
  48.0393505   5.4653180  66.5733004 101.6449928  75.6849957  71.2845278
 102.1283245  75.0338507  70.7759666 100.7925797  75.2797985  71.4440060
  16.8290985  15.5020356   1.1763647  17.0763659  15.0940943   2.0062287
  17.0023358  16.4343500   1.3067876  36.4242983  51.4874601  51.0617256
  36.1426830  52.0411253  51.7899990  37.1610236  50.9869242  51.4123344
  26.2195826  23.3258033  21.6944313  26.7934394  22.6383495  21.3563108
  25.6678104  23.5649776  20.9497333 102.0326240  89.1554831   0.4576954
 101.9246633  88.7402533  -0.3979698 101.8978031  90.0881885   0.2900204
  98.2627869  69.4921303  33.4899831  98.3605480  68.6268234  33.8873744
  99.0173626  69.5745277  32.9068446  58.3117771  75.8409309  79.3418026
  58.8841677  75.4943323  80.0262547  57.4469566  75.4883194  79.5515156
  43.0577755  58.5707378  44.3928194  42.4607801  58.8032484  43.6816454
  43.7934065  58.1404686  43.9569902  17.9437280  32.6338720  55.9354973
  17.6284039  33.5053349  55.6960106  18.8645661  32.6321745  55.6741858
 111.4260081 104.9625874   2.5032485 111.1547434 105.2728844   3.3671746
 111.1715660 105.6655788   1.9055006   4.3713802  68.5361576  69.6343470
   4.2901385  69.1264439  68.8852215   5.2052271  68.7757397  70.0387383
  12.0251405  51.6073656  28.1646538  12.9803801  51.6127348  28.2256556
  11.8405569  51.1658144  27.3356843 105.5410004  57.2469807  67.3576784
 105.0926495  58.0538368  67.1043062 104.8625374  56.7173481  67.7764940
  26.0686874  28.7311459  15.7809424  26.9336677  28.9356399  16.1362195
  25.8689976  29.4648314  15.1995134  34.6036193  10.4771774  -0.0845447
  33.6538789  10.4826801  -0.2036682  34.7298667  10.1915853   0.8202919
  87.9332256  13.4859276  44.1315651  88.7102890  13.6959529  43.6136007
  87.3988533  14.2792022  44.0941715  70.2366018   0.2891297  53.0824804
  70.6184816   0.6126808  52.2665691  70.6645966  -0.5543751  53.2292938
  65.8932400  38.5877466  22.5173640  66.5104723  39.2209005  22.8839278
  65.1133442  39.1039371  22.3135519  90.7387733  52.9305601  87.2452736
  89.8669338  52.6248360  87.4956036  91.2051487  53.0300570  88.0752277
 108.7001896  60.6784487  83.2916641 108.5548496  60.5473852  84.2286491
 107.9313278  60.2908707  82.8735065  46.3188934  13.3143675   8.7236941
  46.2727165  12.4256074   8.3712685  45.7117748  13.3104217   9.4637132
  33.5788059  91.6509438  16.2023997  32.8307676  91.1164284  15.9360027
  33.2638550  92.1425915  16.9608939  52.8560019   3.9793491  74.6347046
  53.1633949   3.5690752  75.4430485  53.0603743   4.9079853  74.7447014
  24.4804478  77.3382330  25.2810502  23.7313461  76.7756128  25.0847316
  24.8014212  77.0234823  26.1261201  61.3240433  45.0421333  18.4910011
  60.7619143  45.7547045  18.7951124  61.7331600  45.3826666  17.6954532
  29.6698070  41.0840082  12.5045323  29.6072316  40.5017805  11.7473495
  30.5096579  41.5299654  12.3949909  41.1751318  10.9038997  14.1084027
  41.7308521  10.5707324  14.8129630  41.1988592  10.2188098  13.4403312
  83.2412910  26.0137177  74.5769405  83.8675308  26.0028458  73.8531065
  82.8217793  25.1539898  74.5436382  27.7690117 106.1079049   9.1082382
  27.9726784 105.3197784   8.6046439  27.8120177 106.8186612   8.4685445
  41.9453192  11.0758805  58.9830351  41.1742926  11.0768652  58.4158039
  42.1694803  10.1504588  59.0809059  50.1634121  35.1626921   1.8501335
  50.6065845  35.2859259   2.6895639  50.4868174  35.8771992   1.3013873
  76.5394878  17.8855669  33.7760043  77.0600843  18.6802757  33.6591768
  77.1867037  17.1913826  33.9003229  59.1899061  23.4348893  11.4967191
  58.2555914  23.3524299  11.3056982  59.2389870  24.1237974  12.1594620
   4.9515191  86.5548325  53.9246082   4.6623054  86.6607285  54.8309040
   5.7320702  86.0040951  53.9850807  59.8897743  46.2698126  34.0833640
  59.8984957  45.5183363  34.6761894  59.0906858  46.7451239  34.3109059
   5.2891058  11.7299521   5.5444002   4.8482791  12.3407960   4.9538305
   5.2918255  12.1756041   6.3915241  18.6091769 105.6269646  11.2841487
  19.3346500 105.0369263  11.4885437  18.9409959 106.4983940  11.5003455
 103.7179279  57.9562235  40.9300137 104.3766403  58.3140373  41.5252447
 103.5934639  58.6398220  40.2716589  75.0169468  65.6785297  74.0512800
  74.6754026  64.9840403  73.4880209  75.9545946  65.7024145  73.8602924
   3.7412038  65.2419281  55.1388788   4.0413076  65.9939718  54.6283865
   4.0281877  64.4804430  54.6348858  70.7876396  29.6822214  51.1674929
  71.5784740  29.1441059  51.2026787  71.0311747  30.4951334  51.6103172
  56.9916391   5.6888276  57.4701881  57.8490019   5.5679643  57.8782988
  57.1308231   5.4654700  56.5498781 108.1579781 105.7324982  28.4452796
 107.5958252 105.1924515  29.0007639 107.9537487 105.4520130  27.5531793
 111.1074066  99.8935795  41.6604805 111.6695786  99.2533302  42.0966864
 110.6395626  99.3880272  40.9958220  19.2910588 102.5824261  38.7945366
  20.1197290 103.0210209  38.6017489  18.6326122 103.2738304  38.7264681
  19.2517877 101.5364838  24.1784787  19.3519926 102.4047279  23.7881804
  18.3654892 101.5372372  24.5400119  47.0369864  26.8632531  31.5587902
  47.7457333  26.2226987  31.6187525  47.2326040  27.3634386  30.7664657
  94.2831230  28.9582181  89.4652557  93.4909725  28.9095402  90.0003815
  94.5215893  28.0448508  89.3067551  27.5707674  96.2115192   3.6450627
  27.0432353  96.0758495   2.8579581  27.0700979  96.8416023   4.1632894
  39.3761706   9.8372936   1.6957507  40.0498438   9.2621553   2.0585361
  39.8651218  10.5070877   1.2176982  29.1051722  95.8196640  49.2118502
  28.9141965  95.0156116  49.6948051  28.5223055  96.4742851  49.5965195
  75.7042933  10.0099516  36.2169480  75.0890589   9.3899423  36.6084909
  75.3953171  10.8686662  36.5056944  10.6338930   8.3389014  64.3949175
  10.2271175   9.2038518  64.3436813  11.1900258   8.3814692  65.1728249
  26.9763350 103.2548904  37.6378441  27.5425315 103.1087208  38.3956647
  26.7901444 104.1936398  37.6554894  46.3418341  17.3396850   3.4569225
  46.1270428  16.5309894   3.9217967  46.1478519  18.0356419   4.0848142
  35.4019499  18.7220275  12.9544699  34.8110867  17.9891288  12.7813470
  35.8272696  18.4965169  13.7818038  44.8100519   4.9569586  23.2119489
  45.1780462   5.8382297  23.1473446  43.8768148   5.0981784  23.3711863
 102.0136738  54.4207525  90.4455471 101.4493942  55.1517296  90.1935768
 101.9546890  53.8087034  89.7119617  31.7228270  93.9604664  32.0827889
  31.0289240  93.8575935  32.7340555  31.3821554  93.5283756  31.2995410
  40.4926395  27.8747511  40.2858448  40.3645277  27.5769711  41.1864805
  39.8934889  28.6151791  40.1908731 103.7130356  84.2258072  82.7410316
 103.2397175  83.8384342  83.4773350 104.6332455  84.0313721  82.9189110
  22.7725124   2.2445962   6.3271695  22.0414209   2.2918423   5.7111305
  22.3720264   2.3840739   7.1853006  54.9946499  23.2493067  39.4217801
  55.1097918  24.1960907  39.3406916  55.2004099  22.9076123  38.5516405
  54.9291801  19.3441379   7.3517621  54.1463661  18.8914084   7.0379657
  54.5948505  20.1336765   7.7772999  63.9046288  35.0474238  39.6185851
  63.7501001  34.2075300  40.0509405  63.0451202  35.3082061  39.2877245
  80.2827549   8.4088027  37.5224900  79.6097755   8.0972511  36.9172931
  81.0363770   8.6008006  36.9644380 101.0956287  86.4320946  82.6761627
 100.9052086  87.2699356  82.2542572 102.0514774  86.3898563  82.7042866
  72.6522732  82.1753979  80.0178814  72.2447681  82.7685070  80.6490707
  72.2867680  82.4370766  79.1728020  65.3739786   8.7014967  19.4489586
  64.6840858   9.3308002  19.2385817  65.6256151   8.9135402  20.3478193
  58.5729027   1.3584124  23.2638526  57.7395391   1.0408029  23.6115098
  59.2255831   0.7533382  23.6161613  60.1802919   3.7439124   0.4103741
  60.3431890   2.8405540   0.1389965  60.4191491   4.2700259  -0.3527656
  74.9081612  73.6733246  51.9757843  74.0273523  73.9183950  52.2592497
  75.4229927  74.4742441  52.0743036  12.2400844  79.8670530  88.8447189
  12.9765594  80.3886795  88.5257435  12.0813501  80.1933098  89.7304916
  68.9779472   1.2439448  27.0447659  68.0761385   1.4886427  27.2523618
  68.8996935   0.6560390  26.2934494  94.2062759  44.9936867  90.4180145
  93.8969231  44.8233461  91.3076878  93.4182835  44.9442148  89.8768616
  30.0053978  92.9623604  10.0559497  30.2876949  93.6710167   9.4777274
  29.6474433  92.2995567   9.4653630  86.1368561  10.3626215  14.2531478
  85.7505894   9.4890577  14.1905820  87.0342827  10.2507043  13.9395642
  43.1751060  95.9472466  38.3909130  42.7763319  95.8887005  39.2591238
  44.0898323  96.1713123  38.5620975  62.8243685  32.8095436  41.0598564
  62.1866560  32.8079700  40.3460264  62.4413776  32.2369385  41.7244434
   9.8478186  67.8904581  82.9742718  10.1784015  67.0768356  83.3550167
   9.1754627  68.1862545  83.5880089  70.5718803  39.8742962  19.5069373
  70.1743555  40.6768560  19.8447299  70.6410551  39.3014479  20.2706718
  89.4292831  51.1404657  18.3509517  89.5112610  52.0206642  18.7180531
  90.0284767  50.6066084  18.8726664  55.7632446  27.1531415  11.8232489
  55.5836916  27.0095944  10.8940625  55.4540205  26.3556576  12.2529364
   6.9360101  86.2580013  13.3534741   6.0316074  85.9529495  13.2811368
   7.3174679  86.0825920  12.4932671  82.9503632  29.5549083  28.0029440
  82.0403957  29.3351293  27.8032041  83.4637642  28.8919282  27.5413108
  93.9313889  23.5022283   2.5268817  94.8805809  23.6139202   2.4740860
  93.8129807  22.6835203   3.0084696  44.8542929  13.2772505  68.0487347
  45.1180744  14.1633964  67.8009462  45.2903652  13.1230581  68.8867664
  46.3247156  43.0311108  29.1533113  45.7862425  42.2397375  29.1554308
  46.4441013  43.2370949  28.2261920  21.3248563  89.6341324  48.3001757
  21.5247083  88.8628387  47.7697039  21.3871765  90.3680038  47.6887989
  89.8277950  26.2911153  40.3534174  89.4297981  25.9525681  39.5514059
  90.7379341  26.4657807  40.1138926  68.4172828   0.3896398  14.0418494
  67.6487858   0.8635968  14.3596673  68.2865770  -0.5089885  14.3445396
  35.4781914  20.8127975  18.9013636  36.4167404  20.6431675  18.9825022
  35.0613308  20.0442600  19.2909896  78.0696726  48.3709812  91.4983654
  78.2779694  47.7562094  90.7948780  77.2938776  48.8372993  91.1870480
  22.7493620  98.1788921  33.4483099  23.3970046  97.9208565  34.1042113
  21.9931245  97.6194477  33.6254001 101.9284534  99.2514801  88.0376911
 102.2615242  99.9314594  88.6232948 102.6633167  98.6477947  87.9292202
  49.3812609  19.8219347  31.3162851  49.6723986  20.2157140  30.4938436
  49.8586655  18.9938700  31.3675642  63.9106083 104.1388988  20.8027673
  63.5767746 103.2606316  20.9856319  64.8529863 104.0175915  20.6868243
  50.4543018  17.4748838  32.5603127  50.7244205  16.5781331  32.7580619
  49.5055103  17.4726617  32.6869011   5.3908306  80.0883102  81.4437199
   4.9983966  79.5258188  82.1114254   6.1662900  80.4570198  81.8667412
  75.3666162  45.1962757  10.4821849  74.5127106  45.4826736  10.8062935
  75.4627752  44.3044281  10.8162427  27.7453995  92.9915428  30.5187607
  28.6671901  92.7350998  30.4909348  27.3681426  92.4539089  31.2150836
  87.5166416  10.4285407  22.5354409  87.7857208  10.2155209  21.6418791
  87.7236843  11.3579988  22.6327777 111.1715698 101.2020206  54.7756338
 111.0933495 102.0831871  55.1412392 111.4993477 101.3396931  53.8868999
  19.7060823   5.4253566   5.9473085  19.2615676   6.1212015   5.4631197
  20.3736377   5.1015216   5.3425515  46.0918045  34.4449806  46.1204290
  45.8662796  34.2510366  47.0302391  46.0515261  35.3995419  46.0619402
  11.0465932  24.2501593   5.9992945  11.0196638  25.1989460   6.1230350
  10.3485060  24.0708590   5.3694081  65.7624388   9.6872079  22.0071936
  65.0597572  10.3329659  21.9332623  66.5114737  10.1847947  22.3351979
  31.8034577  40.7376957  53.7567616  30.9684730  40.2785826  53.6659622
  31.6752720  41.5627480  53.2886887  35.4041958  13.5419643  16.7800295
  36.1531329  14.0038228  16.4031863  34.6918917  14.1809249  16.7558742
  59.3429995  23.6085129  39.3039703  59.6601343  24.4182920  39.7038651
  58.9550257  23.1191158  40.0293684  54.7138834  51.7337751  25.7853770
  54.6832466  52.4099922  25.1086044  54.6066523  50.9114552  25.3073359
  72.7069139  16.6541839  53.6571360  72.9983044  16.0756230  54.3618298
  73.1815243  17.4718404  53.8068581  87.6860142  26.7940474   5.4217869
  87.1609879  27.5468850   5.1501155  87.0985317  26.0446477   5.3243810
  42.5369072  33.9833784  36.9664216  41.9195604  33.3719206  36.5648794
  42.8366518  33.5360074  37.7577782  16.6202533 102.3227501  53.5547733
  15.7856393 101.8559456  53.5965490  17.0323956 102.1527958  54.4018173
  25.9673071  99.3906784  31.9013429  25.7215405  99.4182682  32.8260422
  26.9003725  99.6041775  31.8950343  55.5247641   0.9662836  37.3831773
  55.0470114   0.7828142  36.5742731  56.0627127   1.7303193  37.1755838
  47.4503088   2.9970977  85.5842113  47.4225330   3.9483488  85.4813480
  48.1997061   2.7209145  85.0566196   2.3493464  41.3562202  79.8793364
   2.1654759  41.0934639  78.9774561   1.5709662  41.8428993  80.1504421
  73.2689762   7.4202347  22.0687580  74.1014719   7.5069094  22.5331640
  72.7534723   8.1728381  22.3587203 110.4428482  59.9214649  90.5623341
 110.5666065  60.0320768  89.6196365 110.3607941  60.8135796  90.8994389
  54.6832180  32.8811550  20.5100369  54.3634033  33.4407401  19.8023558
  55.3945255  32.3775077  20.1142931  33.3085322  20.5065942  37.1612048
  33.0733514  19.8630643  37.8296280  32.6250505  20.4221249  36.4964128
  71.2473202  34.4577837  35.8044910  71.6993475  34.5382690  36.6443872
  71.7334604  35.0339913  35.2146721  97.5294495  91.4231491  61.4680386
  98.4043407  91.0407639  61.4003849  97.6460552  92.1903515  62.0284224
  71.9428635  21.9152355   1.6154850  71.3332367  22.6520848   1.6559210
  72.5328541  22.0515442   2.3568104  66.1471033  45.7287788   4.6238205
  66.9914675  46.1795616   4.6322989  65.8554506  45.7836103   3.7137851
  58.1638527  21.4728713   1.8289207  58.4728098  20.5707550   1.9123600
  58.7989473  21.9903135   2.3240376  96.4980698  80.2844906  83.7788963
  96.3318443  79.4907331  83.2704163  95.9770679  80.9602642  83.3451843
  96.2784290  23.4934425  13.7651050  97.0185089  24.0204382  13.4637916
  96.2034035  23.6968422  14.6974301  54.6895885   2.5868320  73.0007839
  54.4266748   1.7423126  72.6348639  53.9939690   2.8062984  73.6206055
  46.8247652  90.4357243  68.4674835  46.7160559  91.3255787  68.8030148
  47.4536657  90.5249214  67.7514076 100.7795143   1.2492925  15.5825984
 101.1186695   0.6722646  16.2668836 101.5485668   1.4813533  15.0620806
  78.0215263  13.5453832  38.0355406  77.6095581  14.3537951  38.3404732
  77.3745680  12.8636539  38.2169962  55.5192423  19.8002982  26.9537544
  56.3647270  19.3899584  26.7720771  55.6619644  20.2961183  27.7599955
   9.9083018   8.4384102   6.5773690   9.1007137   8.4315962   6.0635716
   9.6152526   8.3600616   7.4852318  82.6745415  10.2280784   8.5530895
  82.3631573   9.9580997   9.4170231  83.5482311  10.5844748   8.7139964
  96.5834045  45.6132364   8.7088317  95.7357597  45.5656433   9.1509414
  97.2215652  45.4058981   9.3914723  39.4760180  32.3780966   7.3520273
  38.7721205  32.1432567   7.9566830  40.2549791  32.4422455   7.9045975
  33.0011320  22.4118543  11.8568051  32.7642393  22.0238113  11.0144651
  32.2684646  22.1968865  12.4340558  70.0166702  34.7851062   1.6869284
  70.6256819  35.0568151   1.0002626  69.1635990  35.1011705   1.3892667
  62.7135563  35.2032018  11.2564790  62.1129513  34.5812464  11.6671848
  63.4111023  35.3236866  11.9007969 104.3980312  79.9893141  91.4772892
 104.4008446  79.0879107  91.7993164 103.5234070  80.3162003  91.6880131
  12.8602397  88.4571743  12.7356482  13.0210459  87.5137043  12.7509964
  13.2175028  88.7474060  11.8963873  65.7744360  30.5953193  35.2251101
  64.9955702  30.1987576  35.6154156  66.4988613  30.2857399  35.7687998
 109.1145134  82.0808506  89.2758083 108.3800602  82.1241760  89.8881245
 109.4588947  81.1935234  89.3772602  54.4748497  14.9093258  10.6257915
  54.3566799  15.8084941  10.9320021  55.3223085  14.6440458  10.9831095
  83.0457020  62.5272226  87.4501896  83.5950851  61.8315029  87.0890999
  83.1580353  63.2598305  86.8444729  90.8320236  54.9001884  85.1255894
  90.9314060  54.5119333  85.9948540  91.4527321  55.6288004  85.1163197
  47.3035908  34.6971107  16.2080896  46.8827629  34.2894793  15.4511392
  48.2257652  34.4527626  16.1298668  62.9058266  16.8678701  11.2825990
  62.1172905  17.4016857  11.3799608  63.3096457  17.1824265  10.4737628
  85.0195885  56.0002470  92.0127392  85.8945847  55.7067537  91.7588139
  84.7880077  56.6581488  91.3571739  56.5173721  44.7020197  24.0144014
  57.3512983  45.0302219  23.6781168  56.7609358  43.9868832  24.6021819
  27.4423361  42.1347141  11.6362011  26.7901897  41.6009092  12.0900643
  28.2759285  41.7011642  11.8189299  40.5772734  31.4227509  16.8534839
  40.2221727  30.5476069  16.6977346  39.8195243  31.9455242  17.1156895
  48.3191490  14.4036412   4.0719837  49.1173267  14.9169922   3.9470246
  48.1414747  14.4618154   5.0107485  89.7548294  39.0402269  19.0510488
  89.0472126  38.4583449  19.3283999  90.1736355  39.3138957  19.8671007
 104.2586136  13.8733900  67.0936775 105.1790905  13.7152517  67.3033094
 104.1214180  13.4211254  66.2612915  96.4874649   8.7625355  34.3375587
  96.3839054   9.5579249  33.8151956  96.0525036   8.0810839  33.8250518
  30.6656981   6.1155528  16.1402762  31.2045765   5.5271286  16.6690469
  30.5711007   5.6645954  15.3012764  84.1420174  35.5912614  22.3375607
  83.6165619  36.2906146  22.7261972  84.3242359  34.9962020  23.0648398
  14.0097499 102.5321674  25.1797080  13.8999629 103.4811974  25.1203108
  13.5475636 102.2873020  25.9813643  26.1632180  10.7314420  14.4461429
  25.3148198  10.4113305  14.1395819  26.0614181  11.6825140  14.4826066
  42.0352936 103.2461643   7.4704903  42.0998859 102.9351997   8.3734649
  41.1694622 103.6508846   7.4179059  63.5968781   5.3364706  16.9281042
  63.0836344   6.0567212  17.2942305  63.1036997   4.5492977  17.1591103
  89.7066307  38.1446385  23.7916255  89.3623257  38.5022235  24.6100497
  89.0471745  37.5099683  23.5113716  98.5130405  53.7489653  78.1908703
  98.2172585  53.0488920  78.7728024  98.4552288  53.3713293  77.3132133
  58.8599825  97.8574562  28.0166006  59.4307804  97.1440411  27.7311921
  58.4377193  98.1622601  27.2134686  23.4405017 101.6318607  28.2526994
  22.8243423 101.4885902  28.9710712  24.2983794 101.4388561  28.6308861
  87.4255848  56.6655540  16.0071099  87.8832436  57.3413372  15.5070114
  86.9024658  57.1520472  16.6442204 101.4747906  81.6643810  88.8284111
 100.5494595  81.9090939  88.8185501 101.9231129  82.4366474  89.1731644
  17.9822862  74.5097876  77.4640560  17.1423161  74.8005533  77.8192139
  18.4445739  74.1387606  78.2156229  64.1899109  38.8940787  35.9933472
  63.4452200  38.5657191  35.4895163  63.7954235  39.3145895  36.7574024
 103.0647755  99.5081520  79.7199583 103.9362335  99.7353935  80.0442410
 102.4636841  99.9669456  80.3068352  41.5095568  19.9703002  63.9261341
  41.5612936  19.2065728  64.5008326  40.5814981  20.2046585  63.9222002
  71.6534424  53.9608335  16.4111388  71.2507629  54.7345924  16.0169578
  72.5684214  53.9987946  16.1325622  67.7715492  25.1056147  34.9535131
  68.6160469  25.0726295  34.5041037  67.3846769  25.9359169  34.6757317
  88.6947155  40.5224228  21.5172553  88.0882931  40.4744005  20.7782221
  88.1452465  40.3785133  22.2877073  23.1229353  14.0287280  18.9671457
  22.8109956  13.4525025  19.6649206  24.0736532  14.0451097  19.0771294
  14.1656017  96.0428238  18.1149745  13.2099080  96.0964012  18.1183553
  14.4257390  96.3492107  18.9837039  53.2752228  25.2236342  31.4839149
  53.1812143  25.9783697  30.9027386  53.9069462  25.5073905  32.1447015
  39.4458342  20.8864546  46.4774513  40.3248453  20.5971432  46.7221403
  39.4756961  20.9630656  45.5237913  90.6141281  62.3967600  13.7189257
  90.8152008  61.4621735  13.7674522  91.3186646  62.7659893  13.1864452
  56.3788652 105.1157188  30.9350967  56.5225458 106.0591125  31.0099339
  57.1350765 104.7229385  31.3710976  10.0362539  47.9167604   6.9899631
   9.1399485  48.1845665   6.7871130  10.1002204  47.9957151   7.9417539
  70.4765224   6.3088506  20.8875942  71.2165737   6.8987375  20.7441068
  69.9677372   6.3617021  20.0785351  66.6512346  10.6710827  17.0249784
  66.2517405  11.3636446  17.5512803  65.9268093  10.0816965  16.8150640
  -0.2483643 100.4979324  12.4219263  -0.0640818 100.9148788  11.5802455
   0.5775702 100.5532646  12.9025543  35.1785874  20.6650829   7.7224314
  35.6175947  20.3387570   8.5079348  34.8874998  19.8759973   7.2654366
   2.5680521 105.9936523  17.4396372   3.4196699 106.2559223  17.0900714
   2.2356865 105.3562737  16.8075669  55.7395554  49.5859861  11.4332342
  54.8641872  49.4637632  11.8006837  55.7512569  50.4971695  11.1402583
  18.7970197 104.3342209  23.8435221  17.9834092 104.0539074  23.4243608
  18.6288011 105.2371120  24.1131902  13.1814861  30.1554203  16.1588693
  12.4495924  30.5311322  15.6695807  13.9618552  30.5015707  15.7259285
  41.2462521  97.4940491  14.4648731  41.0955811  96.6255283  14.8379767
  42.0175695  97.3852253  13.9085817  58.9524889  44.1314650  36.1801600
  58.9108229  44.5517206  37.0391607  58.9056063  43.1943464  36.3694692
  91.6963482  73.9791727  73.9116383  90.7820797  74.0989590  74.1685200
  92.1837902  74.5823479  74.4727230  92.5701523  83.9327240  88.7012863
  92.3090458  83.2145309  89.2776966  93.4857655  84.0989780  88.9254475
  65.1524544  45.1335955  17.1586621  65.6906271  45.6651068  16.5720594
  65.6000710  45.1813412  18.0034065  74.5997906  43.4157515   6.6471410
  73.6527300  43.4797287   6.7704916  74.7307825  42.5604153   6.2379032
  73.6235094  18.5747397  22.3762584  74.5496702  18.8005543  22.2898531
  73.3504820  18.9919388  23.1933475  14.3135846  95.1594830  72.6056528
  14.5638978  94.2477226  72.4563932  13.8906991  95.4283428  71.7901087
  11.2242019  59.3923759  77.8612995  11.5547824  60.1437855  78.3535719
  11.6097033  59.4882059  76.9904184  82.6642227  35.9508705   8.3380902
  83.4637833  36.4053226   8.6034471  82.2543812  36.5382528   7.7030742
  56.0698366  29.8099947  51.1880398  56.9065380  29.6859336  51.6361141
  55.5915356  30.4281092  51.7406607   0.7915327  96.6253662  62.7335119
   0.9432682  97.3805714  63.3017302   1.6293141  96.4855576  62.2921419
  75.0255346  39.6567059  24.0438652  75.6857061  38.9992476  23.8244224
  74.2264700  39.3448472  23.6190486  10.9418309  88.5237598  37.7903819
  10.8543670  89.0942478  37.0267534  10.7720327  89.0967369  38.5381103
   4.9292648  94.9335384  82.7326012   5.6392878  94.6261978  82.1690083
   5.2140874  94.7117805  83.6191273   2.7552548  77.0601416  79.1700077
   2.0263860  77.6764727  79.0984631   3.5011226  77.5264025  78.7924957
  57.7204132  22.0213556  15.0649703  56.9027519  21.7695594  14.6357143
  58.3995247  21.5512013  14.5812464  54.9807072  28.9991021  19.4709933
  55.7345200  28.7511611  18.9357185  55.3443813  29.1435099  20.3445601
  46.4863396  21.8293285  13.4370160  45.6162214  21.6677427  13.0722916
  46.5856791  21.1678123  14.1216755  36.0802197  11.4234579  28.6094856
  36.1261606  12.2114503  28.0680180  35.1936984  11.0896945  28.4719539
  49.9438715  51.8482447   5.2540886  50.7597542  52.0207739   5.7239825
  49.2828846  51.7712927   5.9421307  49.4401884  34.9703598  13.2524347
  49.1287374  34.0678358  13.1840158  48.9023829  35.3576159  13.9431059
  61.2452173  40.5326271   0.9382372  60.4819536  39.9554563   0.9613325
  61.8399429  40.1696253   1.5945613  35.0732708  93.7389755  44.8116064
  35.3617692  94.6257687  44.5957232  35.6143475  93.1709099  44.2631817
  48.0208778 104.7814178  45.2757311  48.5147238 104.3867302  44.5570040
  47.5527573 104.0484524  45.6755590  59.5192909  15.4336262  35.4499722
  60.4452276  15.4649413  35.6905818  59.1988564  14.6186006  35.8363461
   8.9262450  96.5234184  89.0718651   9.5087200  96.2935925  89.7958374
   8.9834899  95.7790279  88.4728336  29.0853810  78.5161543  32.7593684
  29.8928213  78.0104303  32.8516412  28.9363456  78.8899994  33.6278510
  12.6459134  91.7097092  31.8968797  12.7154493  92.5670338  32.3168707
  13.5342669  91.3546658  31.9286609 106.4498615  95.8208561  88.4415054
 105.5449200  96.1322498  88.4230900 106.9734859  96.5938377  88.2304287
   1.7218034  61.4576387  88.9362144   2.2275046  61.5664577  89.7416115
   2.1716091  62.0076513  88.2948112  61.1002588  25.8616567  16.9553554
  61.4780331  25.2852440  16.2910771  60.9393167  25.2893567  17.7055585
  78.7626410  14.7386944  19.1605365  77.9903269  15.1182663  19.5796883
  78.4363556  13.9507389  18.7259173  12.7895474  39.5578933  90.8115101
  13.0133510  39.3889928  89.8962975  13.5106146  39.1726995  91.3094234
  53.4437323  11.3057506   4.5836407  53.6803532  12.0795178   5.0950378
  52.4910784  11.3536191   4.5036983  43.6960602  23.8201737  18.7597489
  44.0004539  24.7215176  18.6541247  43.1618929  23.8392639  19.5538080
  18.0615628  43.6669350  73.5046005  18.7137413  43.2777119  74.0871859
  17.6901615  44.3900585  74.0099621  64.3814373  41.7099857  13.1516480
  64.3333912  40.8417606  12.7515113  64.5044422  42.3072672  12.4138415
  25.8467698  87.6515865  83.6812401  25.1576066  88.0867290  84.1831779
  25.6151509  87.8129101  82.7666092 106.6060734  91.0253239  76.1215591
 106.9972897  90.6257343  76.8984127 106.4290810  90.2886009  75.5366278
  59.0741301  14.8166263  25.2829742  58.3031273  14.2733359  25.4461360
  58.8732862  15.2793169  24.4694543  69.2634392  29.0603614  15.9384096
  68.8616419  29.3250370  15.1109195  69.8317194  28.3264017  15.7047701
  66.2088346 104.5846081  14.2791021  66.6606045 104.6908283  15.1162708
  66.0685825 105.4787350  13.9674890  48.9068174   3.8481653  39.2054939
  49.0709257   3.0279347  39.6708155  49.7718859   4.2466527  39.1101336
  99.9402714  61.4698458  90.1144409 100.7712078  61.9435406  90.1516151
  99.3555546  62.0498323  89.6266365   1.3370836  81.0667515  50.6593943
   2.1708032  81.3845062  50.3127241   1.5068477  80.1539898  50.8923769
  68.5757923  17.6231337   4.3238473  68.0853319  16.8296254   4.5383763
  69.3726349  17.3048401   3.8996226 104.3420029   8.8872331  12.0815551
 104.3468761   8.6498618  11.1542666 104.7288704   8.1318337  12.5241971
  49.9544334  91.2746906  28.5264039  49.2840385  90.8872604  29.0891623
  49.7571707  90.9381199  27.6523113  21.0300994  92.2955132  26.9317341
  20.5907583  93.0430031  26.5261841  20.4465890  92.0318794  27.6432419
  58.8473797  22.3901296  27.7138162  58.6427689  23.3251691  27.7220774
  59.1739273  22.2086120  28.5950947  97.6288033  84.0359402  78.4780884
  97.7840900  83.3647251  77.8135633  96.9979000  83.6378002  79.0778112
  30.7729363   8.8769341  16.1707413  30.5177426   8.7714875  15.2542317
  30.9117818   7.9835218  16.4850152  79.4362068  44.0281391  87.2250462
  79.6961260  44.2304182  88.1237984  78.7787676  44.6901321  87.0110989
  82.8332233  29.1489053  33.0527544  83.0558491  29.3160844  32.1369386
  83.5697365  29.5078611  33.5476589  18.7512302 100.7443523  47.8873348
  18.3899593 101.6160297  48.0482960  17.9834199 100.1820278  47.7849245
  84.5446491  30.3951502  34.9395967  84.8248386  31.1594510  34.4360375
  85.3061008  30.1675487  35.4731035  74.6280766   1.0543554  80.5174541
  74.0596724   1.7921001  80.2963734  75.4607344   1.2573916  80.0912094
  78.6479282  13.3492255  35.3239918  78.4868956  13.0563378  36.2209415
  77.7994108  13.2660139  34.8888803  38.1496525  28.3050203  24.2017460
  37.3888588  28.8795376  24.2874980  38.7625217  28.6182618  24.8669529
 108.9176941  23.0004287  11.6376781 108.2053661  23.5783982  11.3642323
 108.9489555  22.3227882  10.9623599 108.0452442  41.2082243  25.0618172
 108.4570980  40.4921007  25.5453205 108.1898975  40.9899378  24.1411328
  66.6373968  35.5149817  10.8912742  67.5927114  35.5723572  10.8735704
  66.3417196  36.3000631  10.4303443  96.6862202  34.1428232  49.4395161
  96.2739944  33.4390330  48.9385319  97.1046162  33.6985731  50.1769543
  36.7027545  20.8591866  31.4174175  37.5935340  20.5873442  31.1964107
  36.6148090  21.7297959  31.0294271  40.0533485  20.6077170  70.5553484
  40.0416517  19.6511829  70.5215979  39.2152214  20.8436108  70.9530067
 105.1195049  86.8318748  40.2451324 105.4805756  87.1405983  41.0761309
 105.5805111  87.3422050  39.5793486 109.9429798  84.5469570  88.1433773
 109.3391991  85.2858829  88.0681324 109.3766499  83.7883568  88.2848930
  59.6769238  49.2955971  31.1905503  59.8574734  49.5222282  32.1028399
  60.1857138  48.4996271  31.0362911  52.4716139  13.9454544   6.2332809
  52.0876837  14.5913088   5.6402355  53.1335020  14.4336212   6.7230022
   0.6092080  70.7377052  35.2440286  -0.1745227  70.6194544  35.7806993
   0.4550698  71.5560675  34.7720599  37.2285414  57.2805595  36.9648790
  37.7692842  57.8538942  36.4216352  37.8203702  56.5783978  37.2349477
  70.1578617  41.8080902  21.2224460  71.0483408  41.5988302  21.5043759
  70.0432825  42.7294970  21.4550757  62.1808672  18.1470203  17.6012170
  61.8580008  18.0039394  18.4908903  63.1308460  18.0545104  17.6733983
  87.4864674  29.9011922   5.6584430  87.3570347  30.7581234   6.0648245
  88.3680248  29.9425864   5.2877957  76.3756180  45.2140141  21.8851423
  77.2231627  45.5848646  22.1308494  76.5914011  44.3828917  21.4621758
  74.1705608  61.3810110  21.5565515  73.2761383  61.4510918  21.8902135
  74.5956373  62.1908665  21.8388200  96.4487171  41.3390493   3.7756956
  95.5529404  41.2704372   4.1060156  96.4098263  42.0362473   3.1209898
 106.5994453  99.5828915  77.3305225 106.0677338  99.7589207  76.5542936
 106.5819263  98.6302185  77.4218369  71.5770006  42.8380108  15.6336045
  70.8267164  42.3145580  15.3519940  71.1906815  43.6380482  15.9898674
  56.8901348  20.1359057  35.7561398  57.1621609  20.8627558  35.1958513
  57.2960186  20.3213501  36.6029572  74.6435213  12.6797295  18.5538864
  74.6390295  13.2640254  19.3120480  74.0747595  11.9530344  18.8081717
  60.6612349  46.5088654   6.2062764  61.2827444  47.2312498   6.1161739
  60.8735704  45.9186316   5.4832488  81.8076992  51.2105370  27.2740221
  81.9214058  51.5296602  26.3787770  82.6205349  51.4505529  27.7189016
  20.1555872  65.6170321  86.2197495  20.2162695  65.5860329  85.2649784
  20.9229064  66.1201954  86.4923000  80.1778698  76.3465881  14.2530048
  80.1103306  76.9865990  13.5444415  81.0857868  76.0454464  14.2180121
  10.2326632  88.3186150  70.3744745   9.9675298  88.2011986  71.2866974
   9.4231057  88.5459328  69.9171162  89.7611237  32.4496222  19.8779130
  89.9615002  32.4131727  20.8131957  90.5690765  32.7636409  19.4719267
  68.5381937  36.4813876  22.1333337  69.3433189  36.9627500  22.3238516
  67.9737091  36.6507339  22.8875971  60.5260181  37.1656394  48.8253021
  60.9591198  37.9692459  49.1131783  60.6324720  37.1637464  47.8740406
  68.5761166  51.4541197  16.2889552  69.0141535  51.2796879  17.1219802
  67.6908112  51.7219830  16.5353572  59.4459295  55.9739399   1.4113772
  59.8357821  56.1274099   2.2720140  58.6523676  55.4708719   1.5941671
  50.3478146  28.1343389  13.6814678  50.4348040  27.8407335  14.5883644
  50.1569700  29.0698242  13.7498379  83.2262325  62.8599501  51.9438219
  83.7034035  62.0320749  52.0000219  83.8331413  63.4569836  51.5062809
  89.0718651  33.5276151  23.8708997  88.5846233  34.3490887  23.8075376
  88.4974957  32.8767490  23.4675312  43.9245987   7.1825898  12.1485686
  43.5520458   7.0801216  11.2728190  44.2723274   6.3171202  12.3636949
  64.7930622   9.9706584  81.9205379  65.0036383   9.1371804  82.3414993
  64.9023247   9.8007721  80.9848976  53.9370251  30.3056455  25.4029965
  53.2304049  29.7591758  25.0590658  54.2563200  30.7910585  24.6423054
  80.6948280  49.1277885  22.0672679  81.2810326  48.3762598  22.1555972
  80.1246548  48.9017248  21.3324022  78.1156731  54.3715429  14.8073053
  78.9839077  54.5799160  14.4623590  78.2501411  53.5841846  15.3347647
  50.5845737  24.0226269  48.3915806  50.7434988  24.9440145  48.1865931
  51.4564419  23.6281300  48.4127331   7.5300121  22.5708890  37.3821807
   7.2614294  23.1664348  36.6825938   7.6157880  23.1309175  38.1537008
  72.5448847  34.6015644  19.5896590  73.2220650  34.7195935  18.9235294
  71.7890692  35.0810480  19.2504323  84.7079372  18.6814344  12.3893452
  84.7389603  18.3047175  13.2687509  84.0942097  19.4122469  12.4633610
  65.0882149  24.9986124  21.8969417  65.6333542  25.7633853  22.0818305
  65.1435757  24.4673467  22.6912475 109.0873528  61.4283323   5.1651210
 109.6301651  60.6401062   5.1480740 108.9507484  61.6049862   6.0959077
  90.2514935  56.7728758  13.3903193  89.4902420  56.6160202  12.8316379
  90.5397415  55.8988237  13.6533237  60.5795383  39.9221516  23.0049419
  59.9404573  40.5606031  23.3214569  60.7997465  40.2208996  22.1226215
  97.4792290  87.7908516  83.7522793  98.0097294  87.0028210  83.8698101
  97.0860100  87.6878071  82.8856754  62.5468540   6.5332776  88.3842850
  62.7985144   6.5967089  87.4629402  62.5634527   5.5950230  88.5730553
  55.0445700  57.9518700  23.9710426  55.4405689  58.5033512  24.6457863
  55.7798195  57.6806784  23.4214091 110.1754856  76.0657120  79.7637796
 109.7524357  76.3347292  80.5791855 109.5059109  75.5614614  79.3015862
  15.0634670  39.4802070  15.5503619  15.9090471  39.1768217  15.8807886
  14.4477403  39.2908621  16.2583601  61.0852385  29.2459393  54.1029501
  61.2624454  29.0120792  53.1918335  61.9169331  29.5908833  54.4278002
  80.6256390  18.3532679  44.0174723  81.5308380  18.0912042  44.1853523
  80.1432228  18.0559313  44.7888947  92.7484989  24.2943907  43.1401920
  91.8829250  24.6519566  42.9422855  93.2149982  25.0159693  43.5620117
  42.7018929 102.1266365  53.4101725  42.7283621 102.6900482  52.6368046
  42.2802448 102.6620960  54.0822792  69.5122385  45.8831596  10.3519738
  69.9084902  46.6715431  10.7230115  70.1518345  45.5724669   9.7111797
  64.6684170  50.2584887  11.1855626  64.4369411  50.5075407  10.2907848
  65.5790758  50.5365515  11.2835944  56.2493372  40.8817148  50.0240946
  56.6705656  41.7136192  50.2402782  56.6969204  40.5854559  49.2315435
  29.0622520  24.4962215  43.5916185  29.8172426  25.0596166  43.7613440
  28.3767128  24.8344111  44.1677237  74.5200968  69.6879435  16.2636304
  75.1279116  68.9565945  16.1544144  75.0618792  70.4687452  16.1494184
  66.7839527  46.2838745  23.6649561  67.2283173  46.8569660  23.0401874
  67.0057535  46.6467237  24.5224977  75.6069279  49.8407030  18.1244898
  75.0708294  50.4894257  17.6684296  76.4602327  50.2627373  18.2244456
  41.3040876  40.1342535  18.5298705  41.1603165  39.5250821  19.2540741
  41.0578156  40.9890079  18.8833940  92.8567982  35.0361514  20.3322792
  93.5751438  35.6629944  20.2469301  93.1877041  34.3738151  20.9389472
  22.0116124  74.6429117  91.1211959  22.8460679  74.4631393  91.5543123
  21.6208062  75.3478964  91.6374300  68.6156082   1.9233151  36.7984414
  68.6327839   1.4768009  35.9519410  68.8353062   2.8323108  36.5942526
  57.7005386  32.7947879  50.2921152  56.8389702  32.4593735  50.5399561
  57.6332855  33.7417078  50.4147959  38.0783868  24.5615053   7.7858758
  38.1350017  24.2835927   6.8716592  37.1884632  24.9017429   7.8781104
  85.6240845  24.9041772  42.5037479  85.5712891  25.5711102  41.8191719
  86.0535812  24.1604972  42.0810080  87.1286106  17.8394580   2.2820987
  86.9505310  18.7509859   2.0505016  86.8850708  17.7749968   3.2055533
  75.0175524  75.0832176  26.5443349  75.6394958  74.4318390  26.2201095
  74.8228168  75.6286049  25.7821894  74.7863197  47.6233101  24.8644686
  73.8366795  47.6688099  24.9755740  74.9177933  47.6433325  23.9165521
  46.8445730  44.1674280  26.4229250  47.2383547  45.0173664  26.6198492
  46.5540409  44.2428827  25.5140090  87.2962856  83.2856369  76.6820765
  86.5884304  83.8880062  76.4533186  87.6055908  82.9491234  75.8410501
  41.3943958  35.2213573  25.3250241  41.1231375  35.6975746  26.1097956
  40.6102419  35.1969910  24.7766280  62.1672010  47.1070480  22.2236109
  62.8411913  46.7004824  22.7682829  62.5484324  47.1269798  21.3458300
  59.4177151  32.7314138   0.0690200  60.0843906  32.4054790   0.6736244
  58.9162397  33.3637691   0.5836838  64.6491194  20.2046847  40.1193237
  64.8917484  20.4180288  39.2182970  64.1155005  20.9459853  40.4055977
  65.0752211  48.3204842  32.0736170  64.9797583  47.3811245  31.9163775
  65.9340096  48.5379505  31.7110896  57.0683479  35.3789973  31.7358947
  56.9547558  35.0534725  32.6288462  56.7179728  34.6824527  31.1806536
  87.4845600  92.7052116  24.1486740  86.8903446  92.1245289  23.6733294
  87.3200989  92.5126743  25.0717735  67.8727484  47.5123787   8.3545959
  68.6057663  47.5440741   7.7398533  68.2086658  47.0185709   9.1026241
  38.6284924  55.3125954  14.2495358  38.5487866  54.8885584  13.3950949
  39.2523026  54.7681761  14.7298443  12.7249122  93.7649155  67.7888823
  12.0943499  93.1483269  67.4168062  13.4716403  93.7339783  67.1908283
  69.5944071  66.6499615  50.6926060  70.1080132  67.2647762  51.2164831
  69.5897818  67.0296288  49.8139381  11.1190903   4.4811380  28.9042449
  10.1946056   4.3843564  28.6757851  11.5370154   3.6967418  28.5488677
  54.8869276  44.2568207  13.3907783  54.2028904  44.6610546  13.9245570
  55.6641912  44.2673826  13.9493370  73.1738901  18.3825517  19.5851052
  74.0793085  18.4214473  19.2769873  73.2477427  18.3025396  20.5360913
  84.9839687  73.9193583  84.7840691  84.8563957  74.7914600  84.4107056
  85.9331417  73.7957048  84.7849655  74.7617388  12.8993845  50.5774450
  74.1299534  12.7800798  51.2865639  75.2443838  12.0734036  50.5451870
  30.8318019  17.1418989  24.9534345  30.4766130  17.4328256  25.7933354
  31.2687325  16.3137364  25.1521087  85.5735970  36.6810298  14.4199216
  86.4541245  36.9561958  14.1645932  85.7080841  35.8655596  14.9027824
  93.2078552  69.9283457  44.2709589  92.6988792  69.6750307  43.5008860
  94.0680885  70.1630449  43.9229059  81.4369583  14.8960304  50.3441048
  81.8970108  15.4498100  50.9749126  82.0397758  14.1714931  50.1770973
  74.9496317  30.8939147  27.8202939  75.7052469  30.7369685  27.2540379
  74.2095947  30.5213976  27.3409057   6.5526056  91.3042450  85.1305103
   5.9541583  91.9976234  85.4085827   7.0037013  91.6684055  84.3688393
  68.4599590   2.6597121   4.6187413  68.0730391   3.1250581   5.3603441
  68.4147215   3.2838061   3.8943851  81.3252354  24.8995376  17.7779078
  81.1458683  25.8261919  17.6186287  80.9161854  24.4462419  17.0407283
  62.5853014  24.9212289   2.0348817  61.6605520  24.7293949   1.8790978
  62.6777697  24.8971462   2.9873005  57.5023413  43.3774424  26.4682317
  58.1236410  43.7856674  27.0712018  57.0719099  42.7001905  26.9900417
   2.8525946 102.4621296  90.6769562   2.3364364 103.2429600  90.4766750
   2.5175005 101.7937088  90.0793266  43.6835957  22.7965975  41.0045910
  43.6304522  22.8827596  40.0527620  44.4473934  23.3186936  41.2500715
  40.8822198  -0.1659518  91.6747379  40.0488128   0.3045530  91.6574955
  41.4164050   0.3161306  92.3059845  51.8276024  32.6560330   1.5812412
  52.5084734  33.0745363   1.0544600  51.2346458  33.3695436   1.8169007
   4.1027489  78.3794022  83.3171368   5.0100160  78.0788612  83.2644653
   3.5819009  77.5774813  83.2738972  62.1489334  13.9458680  72.3033619
  63.0770874  14.0902257  72.1191835  61.9325256  14.5986199  72.9691792
  54.2562962  49.6116972  24.1845083  53.8942385  49.6193075  23.2984567
  54.1609478  48.7044525  24.4744229  61.5921831  30.2457690  34.7009277
  62.1134329  30.0935030  35.4891849  61.5726614  31.1981463  34.6069622
  68.5960531  24.2471361   6.2618679  68.1151199  24.8208475   5.6653881
  67.9153156  23.7658954   6.7322230  65.1874971  29.3056107  42.8908873
  64.4461060  28.7838054  43.1979513  65.8200216  28.6603642  42.5749731
  87.2353458  19.6092415  41.4599609  87.4852085  19.8443854  40.5663681
  86.6763496  18.8390040  41.3575363  40.2261829  47.2622633  38.0399609
  39.3368769  47.5642920  38.2247472  40.1508474  46.3091087  37.9946423
  25.9865570  57.4957991  59.0737391  25.9679484  58.0501699  58.2936382
  25.1411176  57.6480436  59.4959831  94.6852589  38.3725643   2.7747509
  94.0588474  39.0641379   2.9882070  95.4309559  38.5384750   3.3515054
  36.7185736  17.4212384  15.3756094  36.0229897  17.2144234  15.9998071
  37.1437287  16.5810442  15.2037179  58.4611893   4.2995292  22.8550243
  59.0487242   4.4175932  22.1086383  58.5785151   3.3843413  23.1097770
  61.8279123  31.2910795   9.0804243  60.9355545  31.0509467   9.3299675
  61.9806623  30.8243465   8.2588059  48.4687281  32.1799469   1.9565016
  48.6334991  33.1017852   1.7582726  48.7733746  31.7098880   1.1803139
  84.7208881  20.6172919  19.6756828  85.6033230  20.6272054  19.3049347
  84.4063187  19.7264993  19.5215201  68.0362034  90.5571556   9.3829757
  67.9126787  90.3372478   8.4596050  68.0332279  91.5141201   9.4037491
  50.2622080  17.4094772   2.6930830  50.6171417  16.5997028   3.0598548
  50.1529884  17.9869318   3.4486288   7.2393117  88.5413130  91.5781309
   7.6312909  88.4118827  92.4417456   6.7479596  87.7362068  91.4150220
  98.5100269  96.5759563  90.0570583  98.1364441  96.1666012  90.8375072
  97.7589703  96.9616795  89.6061039  75.8534622  20.3460169  37.2879577
  75.7452869  19.4855416  36.8828511  76.7184019  20.6388378  37.0009613
  40.7194376  90.4748535  12.2496390  40.6354189  91.1138344  11.5419102
  40.8966684  91.0021496  13.0286050   4.6343294  61.4877033  12.9393899
   5.2605861  61.6334248  12.2303069   4.1880465  62.3283434  13.0413151
  47.1179438  16.4676309  24.3935084  47.3736715  16.6511488  25.2974749
  46.2275696  16.8116415  24.3219328  92.3977470  32.9169154  18.9607060
  92.1474171  33.7404490  19.3794668  93.3544350  32.9135752  18.9916968
  69.3514776  45.0378323  38.2168770  69.8360920  45.7732821  38.5917115
  69.7196341  44.2651224  38.6453772  93.5252094  21.1399651   3.9274406
  92.7203560  21.6135621   4.1375652  93.3886242  20.2638221   4.2879239
  71.4793062  36.2872887   4.5486218  72.1649742  35.6751990   4.2813423
  70.6783438  35.7631874   4.5518515  84.8092270  80.3375340  29.7614121
  84.2096043  80.6749249  29.0959406  85.0256443  81.1003304  30.2976394
  63.4607077  19.7391176  22.0847869  64.2422533  19.9616992  21.5789437
  62.8051424  20.3786922  21.8065691  61.7176342  34.9043417  50.3680754
  61.8047285  35.6677318  50.9389353  60.9104824  34.4792891  50.6580162
  84.2357254  28.2286358  30.4395103  83.9384460  29.0355515  30.0190997
  83.8267040  27.5286770  29.9305916  67.4930382   2.1049283  32.2053456
  66.5948582   2.1651132  32.5307417  67.5007439   1.3123769  31.6686583
  58.2447910  24.4894338  49.6782637  58.9440107  24.0961623  49.1560936
  58.2780123  24.0227151  50.5133057  39.5758295  53.9971113  19.6827316
  38.6234283  54.0171099  19.5891356  39.9006724  54.4962883  18.9333785
  71.6532803  30.8249402  12.7776897  71.5865278  31.6321516  12.2676027
  70.7465410  30.5448079  12.9024935  74.5470524  23.8969302   5.2268285
  73.7958050  24.0128374   5.8085698  75.0028944  24.7381878   5.2537864
  17.0445347  39.7067332   3.8161984  17.3520792  39.1044831   4.4936511
  16.7465222  40.4778910   4.2986259  69.9994612  24.5677471  19.2887318
  70.9091520  24.8655629  19.2869639  69.5179653  25.2712679  19.7239971
  68.5873604  24.7399116   9.0662968  69.3165827  25.3493404   9.1805625
  67.9885674  25.1917028   8.4716821  62.4059963  50.4397011  22.2749400
  62.3537111  49.6296835  22.7822542  61.4937258  50.6826782  22.1169615
  43.4708071  44.4839191  15.0010502  44.0143204  43.7174797  15.1837873
  42.9277706  44.5843601  15.7828796  74.0018845  64.2854023  16.6000462
  74.4017315  63.9033604  15.8187675  74.1160297  63.6191082  17.2777271
   5.2652407  99.6312904  80.5745316   4.4402161 100.1024055  80.6912041
   5.8965451 100.3096104  80.3346157  94.8773670  35.4556870  13.1662679
  95.2495766  34.7121096  12.6921594  94.6629524  36.0917735  12.4838793
  91.4518738 103.6613560  59.2750931  91.7810535 102.7880573  59.4877720
  91.0471630 103.5614777  58.4134245  73.3332300  68.1857109  12.8519166
  72.5237370  67.9367542  12.4058557  73.4891891  67.4783468  13.4776497
  47.3359919  48.4172773  10.0218940  48.0262089  48.6767244  10.6322348
  47.2499084  47.4719954  10.1454341  36.5536594  30.8263302  24.4853997
  37.2944450  31.4200735  24.6076202  36.1116886  30.8168602  25.3344035
  70.6265306  50.3627968  28.4333754  70.6343079  49.4622183  28.7576103
  70.9821224  50.8804989  29.1557121  78.1084728  65.9726000  18.7670493
  77.3815536  65.4789400  19.1466844  78.6019945  65.3241301  18.2649016
   0.7657987  89.5109749  80.2146244  -0.1548880  89.3189907  80.0365639
   0.7507498  90.3496265  80.6757832  40.2389383  85.1581001  14.7631645
  40.9959269  85.4244709  14.2413902  40.0268459  84.2800236  14.4465768
  91.9679928  95.6371689  61.1595774  92.6102448  95.9101582  60.5044222
  91.2898445  95.1860428  60.6567574 106.9345012  14.5928495   1.2082466
 107.4288597  14.9996583   0.4966625 106.6261092  13.7638824   0.8422646
  82.7947426  50.9831953  18.7145400  82.9667854  51.0291386  19.6550298
  83.2390976  50.1851034  18.4284735  88.6976624  62.5028467   6.2121898
  88.5771942  63.4370041   6.0417086  88.1989574  62.0669985   5.5211312
 108.2955456  50.7799196  26.7714047 108.8358212  51.4163971  27.2396302
 108.8689232  50.0233650  26.6485763  60.8453655  63.6707687  21.5511346
  61.1363506  62.8650808  21.1240125  61.3165760  64.3676233  21.0944247
  63.4553432   0.9588040  29.8975968  64.0492630   1.3880697  29.2817831
  63.4864140   0.0334310  29.6547985  27.5150251  64.0390253  33.8725877
  26.8930221  63.7600183  33.2006550  28.2681584  64.3662786  33.3807278
  97.0883274 101.1472511  38.0435205  97.4797058 100.7468700  37.2671556
  97.8199577 101.5781021  38.4854579  78.4650755  48.3297873  20.2712393
  78.4191370  47.6010466  20.8901525  78.0118132  48.0103350  19.4910264
  60.8924294  11.2098312  43.0697441  60.7750320  12.0607376  43.4921265
  61.8400764  11.1219275  42.9674339  76.3830185  33.2800961  25.9363580
  75.5126286  33.6750269  25.8845592  76.2187338  32.3371053  25.9332061
 108.4266758  68.8319063   6.7974228 107.7882481  69.1959667   6.1841595
 109.1849995  69.4116211   6.7259604  72.3593187  28.4894419  23.4944439
  72.4652863  28.8711190  22.6230526  73.1230879  27.9226232  23.6021519
  33.4645796  24.6316695  18.0613148  33.1530690  23.7446642  18.2413578
  32.8600287  24.9681902  17.3998737  80.7516289  50.5100679  24.2227483
  81.6114712  50.2734756  24.5704770  80.7174492  50.0910091  23.3628345
  40.0271361   7.5933029  91.4280948  40.5123417   8.0590393  92.1091939
  40.6816380   7.4012710  90.7565433  53.6881208   4.6219274   0.2672070
  53.0624342   4.2000625   0.8560859  54.5315599   4.2297328   0.4930867
  43.4784031  54.8159409  10.4202020  43.3380604  55.7037497  10.7493377
  44.1204166  54.9195814   9.7178423  66.4137840  39.0174150   5.2762693
  65.7833052  39.2722750   5.9498978  66.9911289  38.3912992   5.7131767
  46.7994261  96.9525814  19.7783363  46.1841583  97.6409340  19.5256495
  46.2489748  96.1856937  19.9368310  83.4430599  50.6584978  14.8039722
  83.8246346  51.2624645  15.4410374  82.6101780  51.0623264  14.5601141
  73.3177137  44.7646284  20.9245682  73.9150143  44.0350580  20.7596755
  73.5448503  45.4150248  20.2600193  96.3023758  32.7077293  34.0777326
  96.4330387  31.8381071  34.4557714  95.8810043  32.5414801  33.2344985
  73.1364632  37.4019170   2.0103939  73.9072609  37.4766970   1.4477974
  72.4795246  36.9743252   1.4610088  56.0151958  60.5196667   6.8023443
  56.1773920  61.0008812   7.6137352  56.8094158  60.0026464   6.6676617
  78.9613867   4.4800186  21.4606118  78.9173794   4.9325746  20.6183004
  78.2297516   4.8380339  21.9633698  75.3452873  42.3060417  23.8290644
  75.1386213  41.3973904  24.0478587  74.5351028  42.7847767  24.0041304
  17.9711795 102.3709774  89.0109158  18.3440077 103.2507706  88.9544487
  17.0388389 102.5158405  89.1721249 106.4360142  12.0932150   4.6164900
 105.6898880  12.6812339   4.4991875 106.3397694  11.4424956   3.9211243
 106.2545586  13.0310297  14.1287506 106.1902714  12.4739814  13.3529949
 105.3832531  12.9936922  14.5232987  65.7783556  59.4259977  24.2127633
  65.6518030  60.3541851  24.4094491  65.8732986  59.0103436  25.0697637
  67.8161907  36.5617132  19.5201945  67.5499344  37.4053502  19.1546619
  68.0148315  36.7500663  20.4374170 112.2590290   4.7454932  91.3123131
 111.9474337   3.9379519  90.9036350 113.0779726   4.4965556  91.7407894
  46.7031622  39.5544052   9.8511440  47.5027752  40.0289106  10.0785029
  45.9990549  40.1845980  10.0038648  64.9681377  19.6974170  34.1223097
  65.5174923  20.3741384  33.7267232  64.3011045  20.1835108  34.6070886
   0.8502502  73.4339952  85.7103920   0.9103230  72.5779200  86.1343670
   0.7290708  74.0508032  86.4322567 101.9797325  13.7229347  43.3022547
 102.3881054  13.1003726  42.7006865 101.0397530  13.5751891  43.1981611
  87.0898819  44.0596628  12.9656982  87.2616100  44.9009562  12.5426507
  87.6116562  43.4302902  12.4678254  59.2157650  27.9903269  28.8931823
  59.8637152  28.4479356  28.3574724  59.7110558  27.6711059  29.6475148
  64.6848249  64.8486376  21.9495845  64.6512699  65.4064274  22.7267456
  64.9673319  65.4338455  21.2467670  32.3623061  14.2672873  17.7261448
  32.0827174  13.8046384  18.5160923  31.6584325  14.1125631  17.0961809
  25.8490562   0.5626623  54.3580341  25.4035378   1.3972676  54.5035648
  25.1538515  -0.0352495  54.0833998  53.6059237  47.8912258  21.4713764
  54.0901232  47.2730637  22.0187879  52.8575325  47.3896074  21.1480856
  94.5513248  67.2602749  38.4479427  94.8952293  66.5938759  37.8530717
  94.0527058  67.8509378  37.8833890  76.8771696  91.6896152  77.2897768
  76.1229753  91.5765953  77.8682661  76.8344975  90.9432316  76.6920137
  76.0801983  34.7996092   5.1829779  77.0012236  35.0520539   5.1180953
  75.9123278  34.7457170   6.1238003 105.6255245  14.7637820  17.1096098
 106.3448429  15.3751934  17.2677195 105.7077026  14.1120863  17.8058660
  69.8196697  30.5266929  43.0050945  70.2936792  29.7273135  43.2343054
  68.9575958  30.4174018  43.4064913  10.8310783   2.5828734  23.1040025
  11.2702417   2.4594876  23.9455152  10.8040500   1.7076620  22.7173424
  13.5128033   7.2316402  91.1255646  13.9785135   7.8589082  91.6786289
  13.8526988   7.3902661  90.2449131  98.1068134  99.5561028  73.4358501
  98.6861324  99.5348740  74.1975451  97.5904465  98.7531185  73.5052156
  90.8000565  60.0353813  22.0750332  91.0813046  60.9362793  21.9152880
  90.0529766  60.1191950  22.6675487  59.4758947   0.8431310  15.2779865
  60.3029544   0.5507058  15.6609833  59.5955665   0.7305402  14.3349946
  68.0927801  44.4753170  29.1903138  67.3252153  44.2209005  28.6781144
  67.9703569  45.4098749  29.3571639  67.6788664  85.0523663  14.6994233
  67.8457546  85.1051044  13.7583613  68.2991171  85.6694698  15.0876272
  72.6425457  49.9266815  33.3395076  72.7949524  50.7290649  33.8386893
  71.7644930  49.6467972  33.5982037  78.5759497  44.6148539   5.8967280
  78.7110615  44.9357414   6.7883605  78.2999182  45.3873158   5.4034334
  64.3986511  39.6953559   7.2297829  63.9142275  38.8736987   7.1494913
  64.7667265  39.6710587   8.1130511  68.8436890  35.0046921   7.3237175
  67.9724789  34.6270871   7.4446851  68.9648342  35.0282526   6.3745064
  74.5489120  45.6429958  17.8531516  75.3332090  45.6527281  17.3045003
  74.2321920  44.7411489  17.8022742 100.4982471  77.1361876   3.9689210
 100.8872700  76.8311071   4.7885668 100.8919430  77.9963017   3.8224998
  54.9056292  82.7463818   1.1462006  55.0216055  81.9352245   0.6514145
  55.4354239  82.6242256   1.9339988  98.3563900  15.3475404  62.7438259
  97.8996086  15.7450891  62.0025206  98.2524586  14.4052064  62.6117802
  21.9447041  93.9838982  80.5853844  21.1375546  94.3190956  80.9757519
  22.0001578  93.0782795  80.8903790  29.6955323  25.6223679  87.4285221
  28.9977622  25.1510119  87.8836823  30.4885292  25.4102755  87.9208660
  78.1591797  35.2165151  25.3740644  78.6551571  35.1287866  24.5600963
  77.6392078  34.4144964  25.4253292  91.4070702  47.0762539  42.3696947
  92.0260525  47.7240229  42.0328283  90.7313633  47.0167971  41.6943312
  93.7528992 105.7265472  18.8425291  93.2118511 105.3360939  18.1562042
  93.7037945 106.6684628  18.6794293  59.4795990  24.5206642  82.8249741
  60.1841402  24.1471672  83.3544636  59.0778875  25.1795578  83.3912945
  33.6585712   1.7384003  65.4558468  32.7192616   1.5542084  65.4552221
  33.7154841   2.6926932  65.5039930  88.8217354  68.5594797  11.9924712
  88.4089184  69.4147396  12.1122587  89.5877934  68.5808563  12.5659919
  88.1966591  49.9425983  59.7287035  88.1543827  50.0547743  60.6783676
  87.2879314  49.8005104  59.4636250  99.4668198  65.1096106  10.8528805
  98.9770699  65.6728935  10.2536345  98.9850330  64.2825031  10.8517444
  78.0978155  62.9669380  13.1953061  78.0304623  62.2397041  13.8140368
  79.0056944  63.2610750  13.2693183  43.3915377  16.8452358  52.4827766
  43.9087725  17.6491451  52.5320339  42.8460884  16.9586909  51.7044163
   7.6868862  62.1538258  18.8233602   8.3764344  61.9541168  19.4565034
   8.0573297  62.8464365  18.2762814  19.8170674  44.9972010  19.6138811
  20.5299902  45.4542637  20.0600529  19.7263312  45.4536533  18.7774312
 110.8281040  58.5983801  42.7944469 111.1954212  58.7567854  43.6640596
 111.5915203  58.5255861  42.2216177 111.7868996  53.7592077  16.0050070
 112.7095985  53.9218235  15.8090127 111.3154221  54.4311428  15.5126202
  88.2028580  49.0743876  14.3464994  87.6802444  48.3030939  14.5660794
  88.8093185  48.7686777  13.6719775 100.2034378  56.7163181  18.2640958
  99.3992138  56.1987209  18.3034694 100.8486652  56.1269951  17.8734517
  93.3131218  57.0073605  32.1754432  92.9800987  56.9422722  33.0704808
  93.0454350  57.8786135  31.8830514  57.0222855  40.8961773  27.2881651
  56.6131210  40.0350714  27.2026587  57.7997351  40.7397747  27.8242087
  71.8849134  43.8660049  11.0753191  71.1300659  43.5128164  11.5461648
  72.5045776  44.1081858  11.7635012  77.3686504  32.1584797  17.2351825
  78.0266476  31.4640784  17.2023749  77.1904993  32.3631930  16.3172567
  75.1877737   9.6601671  78.8838196  74.4190311  10.2000558  78.6999989
  74.8641682   8.7603235  78.8414478 100.5160236  80.9425926  27.3064423
 100.9041786  80.9207058  28.1811333 100.2341366  81.8501663  27.1921325
  89.6181202  57.3068810  30.0638437  88.7114716  57.1787882  29.7848821
  89.9102020  58.0802107  29.5812654 105.3107166  91.8008041  85.8683205
 104.7987080  92.4011707  85.3264427 106.0889244  92.3022270  86.1116314
  81.0215187  63.3007812  26.9607306  80.4312515  62.9222012  26.3092041
  80.5322456  63.2555342  27.7821851  93.1716919  48.5977888  14.5520127
  92.8014660  48.0936909  15.2766180  93.0765724  48.0267191  13.7897360
  98.6738110  63.4041739  59.3993807  98.7933922  62.5498152  58.9846516
  98.1799126  63.9147997  58.7578487  93.4162426  38.3745217  31.0819578
  93.1265926  37.8762674  30.3177094  93.2693577  37.7852201  31.8218088
   4.7746474  30.4191065  21.8027020   3.8248923  30.4490590  21.9180298
   5.1203012  30.9432244  22.5252366  92.3824692  91.6526604   9.4455332
  92.0098495  90.8484364   9.8069310  91.9996643  91.7220879   8.5709655
  57.9259157  41.5716314   9.3810165  57.3296452  42.2219419   9.7522104
  58.6760044  42.0815039   9.0750271  80.8399582  45.1063347   3.2755783
  80.9701824  44.6823883   4.1238368  79.9124908  44.9720955   3.0805984
  79.9523544  47.9815340  36.8344045  80.3838348  48.3566141  37.6021075
  80.6709957  47.6714945  36.2833428  72.6636219  51.2025928  39.5603371
  72.3773003  50.3300381  39.2903399  73.6143351  51.1874723  39.4501185
  99.8181820  52.7093840  19.1686201 100.0851250  52.9738903  18.2882738
  99.7144413  51.7594957  19.1121888  84.0517235  92.8543091  78.0623102
  84.6030807  92.3773956  77.4419928  84.3360996  92.5450897  78.9223909
  78.7778807  46.1228275  22.1342874  79.2160320  45.2836800  21.9925809
  79.3389845  46.5836811  22.7579927  90.7963753  40.4748678  13.9552319
  90.1810169  41.1515713  14.2374289  91.3076115  40.8905220  13.2608974
  97.6195240  52.2922707   2.1822415  96.8032837  51.9241858   1.8438531
  98.0418396  52.6822376   1.4168657  96.8591404  67.9971886  39.7348666
  96.0052013  67.8096056  39.3452072  97.0345783  68.9084148  39.5001006
  89.1851139  78.0136585  16.3269365  89.1909122  77.2744989  15.7187891
  88.9571953  77.6265955  17.1721959   8.6419600  88.1957436  89.1702843
   9.4552594  87.7370930  89.3810368   8.1128514  88.1223392  89.9645710
  57.6103735  48.6238861  22.4992085  57.8144789  48.7912321  21.5791154
  58.1360054  47.8565693  22.7254200  72.2357702  43.9759111   7.7360821
  72.3314524  44.7776937   8.2501024  71.6443682  43.4290314   8.2531917
  71.9366741  90.5832672  48.4550524  72.3852205  91.3828564  48.7301779
  71.7193794  90.1368523  49.2734241  41.5308475  15.9538162  91.0850716
  41.2211704  16.7282271  91.5547657  42.3872185  16.2085485  90.7415962
   6.8051028  72.7045155  12.1523726   6.5906370  72.5693893  13.0753982
   6.0162073  72.4360800  11.6813958  87.0698261  86.7952728  31.4726567
  86.3010216  86.8888283  30.9101510  86.9020557  87.3851013  32.2076297
 107.9088593  23.5282588  32.2431254 107.8201485  24.4675374  32.4047375
 107.7336311  23.1216145  33.0917525  80.1205158  60.5224514  28.2684708
  79.7268820  60.7287359  27.4206901  80.8725643  59.9700022  28.0552888
  80.8892822  77.2578382  30.6862354  81.0892200  77.9408550  31.3263440
  79.9331951  77.2132683  30.6742692 106.8260479  79.9057436  74.6672392
 106.8784332  80.8615112  74.6674252 105.9514999  79.7138739  74.3287611
  74.9634981  45.8216238   7.7468586  74.9262238  44.9181652   7.4328434
  74.9818802  45.7431126   8.7006563  19.0487552  84.9693203  91.5020943
  18.4174240  85.1159859  90.7977200  19.1830134  84.0216160  91.5099144
  90.6503773  37.2134519  13.2901454  91.0626221  37.6201868  14.0522861
  91.3688183  37.0802903  12.6718009 110.9649372  71.7556047  73.9948416
 111.5128231  70.9963799  74.1939211 111.5382957  72.5087118  74.1374016
   7.2591329 104.4295979  88.9762115   7.6202595 105.1858139  88.5136604
   7.3840916 103.6974430  88.3724213  79.1417742  46.9021797  12.3081005
  78.3636904  47.3289251  12.6668549  78.8615322  46.5714312  11.4546931
  22.3960185  98.4003544  81.1235809  22.5152469  99.2887974  80.7878971
  21.8482566  97.9682159  80.4682541 106.5445614  24.1194391   0.6366871
 106.3470936  23.1951594   0.4852158 107.4491405  24.1229248   0.9496839
  87.0250797  34.1354465   0.6525496  87.0462704  33.6265683   1.4629979
  87.9372883  34.3827796   0.5011180  97.1005821  23.0952668   6.0237032
  96.2742615  23.2251620   6.4890611  97.5722599  22.4488854   6.5490085
 104.5125103  93.2640171  11.6392434 104.1410542  93.9163303  12.2331631
 105.1908684  93.7373829  11.1575961  53.9384127  24.1072822  87.8864288
  53.2126999  23.7796450  87.3551750  54.5619154  24.4575667  87.2502041
  78.2450533  67.7312088  35.7415247  78.9562321  68.2602835  35.3802252
  78.2707644  66.9184685  35.2365232  75.5634308  15.3493583  13.3528626
  74.8190975  15.9290826  13.5144687  75.7366657  14.9400008  14.2005944
  86.7806053  89.3921089  19.2020881  86.7291737  89.9052238  18.3956754
  87.3853683  88.6797619  18.9945567  19.0261459  92.7138329  64.1907978
  18.4045231  92.2428513  63.6358261  18.4902287  93.0773067  64.8957157
 105.4647827  19.0551901   8.2092679 105.4385567  18.9873946   9.1637033
 105.3044987  18.1631732   7.9012954  80.3532410 101.4675522  77.4463940
  80.0540829 102.0446587  76.7437649  81.2559223 101.7396450  77.6118279
  21.7973042  80.9240913  78.3188629  21.5555120  80.7592106  79.2302275
  22.6674247  80.5356979  78.2278872  60.1895380  56.9425392  23.0704403
  60.0671434  57.8902578  23.0149102  60.9036779  56.8296146  23.6977220
 110.1860142  46.0912657  13.5354805 109.9513435  45.3394842  12.9914355
 111.1194229  46.2243748  13.3703256  84.3244648  21.6469336  10.9175694
  83.6424732  21.5091872  11.5749550  84.5843029  20.7643461  10.6534517
  49.4780254  39.1828561  23.2999110  49.3630409  38.7031078  22.4796367
  49.8579597  38.5420346  23.9009380 111.9702530  34.8868895  67.7485180
 112.0041752  34.7230434  66.8060541 112.7281666  35.4451966  67.9219913
  59.1485262  83.0773640  33.5458541  59.0454769  83.2927608  34.4727945
  59.2301607  83.9258766  33.1104255  97.3671532  77.7269030  80.1738548
  96.8341255  78.1103086  80.8703518  97.2253895  76.7837763  80.2553654
 103.3473587  70.4584789  32.3933268 103.7477207  71.2269688  32.7999711
 103.1648159  70.7310724  31.4941025   4.0872648  35.6688809  16.4791751
   3.6297780  35.0004172  15.9691823   3.5599533  36.4595866  16.3653314
  85.5605602  45.1578379  18.0805957  85.9832191  45.8860588  18.5358810
  85.8681107  44.3768501  18.5407090  82.4603176  61.2678576   0.9276605
  81.8868828  61.8640614   0.4460555  82.9523373  60.8074141   0.2478515
  95.6084347  83.8522816   7.1696001  95.0122929  83.6313438   6.4540398
  96.4684010  83.5658169   6.8619871  35.9112597  12.9765928  86.7365265
  36.2907434  12.7055836  87.5724602  35.5160928  13.8292956  86.9181156
  73.7261677  55.0806713  38.3910084  73.0875635  55.0479317  39.1032910
  73.5782051  55.9302139  37.9755354 101.9530773  27.6372838  23.6999726
 102.6617527  28.2099724  23.9932847 102.2693253  26.7523694  23.8820362
  60.9666538  92.3190212  88.1920910  60.4459333  92.5691986  87.4288750
  60.9259510  93.0809784  88.7700176   1.3522241  63.9570189  -0.1772928
   1.2445237  63.0793238  -0.5437440   1.5153655  63.8092709   0.7542581
  79.0606451  52.8996754  33.4087348  78.5248089  53.5625982  32.9732513
  78.9662313  53.0905676  34.3419433  27.8341477  17.6787521  91.5260770
  28.3454697  18.0245783  92.2576411  26.9334977  17.6626446  91.8498092
 110.8364487  82.9917526  30.9717655 110.3879833  82.4278831  30.3415537
 111.7022800  83.1362820  30.5901003  87.3209667  71.5807772  15.2520537
  87.1852493  71.4514542  14.3133903  87.8721046  70.8447409  15.5180156
  73.2224186  63.1469439   0.3067001  72.3899419  62.7588068   0.0373158
  72.9734929  63.9216028   0.8108505  18.8638783  99.9937725  89.9275112
  18.6063814  99.5137596  89.1404247  18.6386859 100.9044170  89.7371006
  60.2603292  47.4327469  25.4100990  60.2625847  48.3856297  25.5008864
  59.9441528  47.2776985  24.5200300  92.8474236  61.5550280  31.3527751
  93.6604118  61.2087631  31.7207098  93.1255150  62.2916174  30.8084083
  90.7899952  73.4871960  21.4830041  91.2247372  73.3978224  22.3310852
  89.9743176  73.9480114  21.6793704  27.4785590  78.7580061  80.4044914
  27.1649909  78.0843163  79.8011255  28.3623862  78.9612150  80.0982475
  75.1573467  47.2673607   3.5274306  74.2981434  47.4831486   3.8899815
  75.6438684  46.9012260   4.2659923   6.0916060   8.0091828  79.4648170
   5.7482368   7.2022110  79.0812492   5.6122571   8.1061357  80.2876568
  86.8555164  50.8013248   1.1237014  87.4555206  51.4577007   1.4778155
  86.9519615  50.8760738   0.1743109  72.5635290  92.2209454   7.2523910
  73.1426001  91.7711926   6.6370606  73.0778217  92.9653168   7.5648832
 110.1914787  96.8824768  85.4203796 109.9289894  96.5989399  86.2961292
 109.8014259  96.2357712  84.8322868  26.3820767  97.1417999  90.8394527
  27.3007941  97.3367310  90.6545544  26.2167263  96.3150787  90.3862286
 109.7429562  39.9356771  60.0307512 109.3846512  39.1400838  60.4242945
 109.9193954  40.5121517  60.7742405  71.5698195  52.0119905  26.6026711
  71.3734293  51.3203144  27.2345328  70.7272434  52.4374628  26.4437032
  65.3872347  57.1146107  14.1643071  66.1862087  56.8816423  13.6914444
  64.6786976  56.7634058  13.6249876  49.0957451  43.6652470  19.8407495
  48.6395597  44.4649553  19.5788527  48.8325024  43.5263300  20.7504940
  63.5681200  64.2785549  30.1000857  64.4453001  64.2558336  30.4825330
  63.0639076  64.8385429  30.6903577  83.2729626  62.1322298   6.9775236
  82.6094818  62.0991087   7.6666766  83.4759998  63.0630684   6.8850595
  69.6931505  58.9521599  25.6798577  69.5978546  58.8221216  26.6233850
  70.2223396  59.7457361  25.5996966  82.8965378   0.8899649  86.4414787
  83.0291367   1.7912495  86.1476421  82.3058891   0.5103850  85.7908726
   2.6333040  42.2277880  16.6981828   2.7780914  42.3565388  17.6355684
   2.7380592  43.0998278  16.3176501  53.4357882  71.7521906   4.2842567
  52.7333069  71.1048222   4.2237127  53.4282303  72.1939516   3.4351248
  97.2836971  78.7867355  19.3690288  96.3753700  78.8713741  19.6588826
  97.4015141  79.4981384  18.7395394 104.5378494  80.8040524  13.0261338
 104.8507786  81.7060184  13.0952430 105.1550293  80.3815174  12.4288177
  87.3896599  35.0189590   9.0856767  88.3354092  35.1162744   8.9747250
  87.1688366  35.6201816   9.7970140  41.4048719  69.1535902   0.3968744
  41.9855452  69.2696619  -0.3551739  41.3071585  70.0329971   0.7620071
  84.8205090  63.1378269  22.8488970  85.1814651  62.7645969  22.0447588
  85.3062153  63.9531660  22.9735899  65.5291653  71.7481184  17.2202921
  64.9061155  71.6914272  17.9447424  66.2709236  71.2115383  17.4997735
  80.0727558  11.4042842  29.7400904  80.7288647  11.8178177  29.1790748
  80.2315426  11.7754054  30.6080103  75.6193399  56.8694067  16.3188636
  76.1851358  57.5577545  15.9691739  75.8528090  56.8152237  17.2455716
  71.2711430  62.5835228  15.8653259  71.1807299  63.1815863  15.1234531
  70.3714132  62.3957825  16.1326599 105.5719948  42.3718548  48.7509346
 105.8632565  41.6629457  48.1774902 105.6533813  42.0136786  49.6348572
  18.3188128  97.6664162  67.9916143  17.5684702  98.1872463  68.2778788
  18.4977341  97.0799828  68.7266827  59.4657993  46.5647888  23.1423831
  60.3666592  46.8199015  22.9433846  59.4956446  45.6101561  23.2057333
  58.6781359  52.2600985   8.9375299  58.1610441  52.8264809   9.5102984
  58.0824947  51.5483427   8.7033379  40.1776361  94.9928284  78.9263153
  40.7839775  94.4311047  78.4435654  40.3707266  94.8178387  79.8473597
  50.4187822   1.5201914  79.1957664  49.5720959   1.0737348  79.1902399
  50.8539057   1.1987388  79.9854279 102.2955418  29.1643596  28.4185934
 102.5110531  29.5440197  29.2704439 101.6451263  29.7609591  28.0481100
  37.5617266 101.7768860  12.5188625  37.7225161 101.2246227  13.2839632
  38.3189940 102.3611832  12.4818337 111.4216805  28.2650685  39.6967101
 110.7327271  28.1187510  40.3449154 112.1036911  28.7371278  40.1744652
  57.0683813  44.1992903  86.7384815  57.7864933  44.3586826  87.3509598
  56.4177370  44.8677588  86.9530678  84.2288494  54.2353439  30.2213621
  83.3186340  54.5273781  30.2709985  84.6666050  54.6926594  30.9393191
  92.1007919  51.1944294  31.2449884  91.7267609  52.0735216  31.3044119
  91.3622093  50.6082582  31.4096999  35.5861449  10.1891625  88.9814091
  36.2835693   9.5890635  89.2454338  35.8438325  11.0334933  89.3514538
  83.8444805  23.4482837  20.2395248  84.1350269  24.0183115  19.5275700
  84.3069077  22.6236415  20.0900102  94.2769527  35.5317616  39.8319530
  94.8643112  35.1216650  40.4668283  93.4005833  35.3893423  40.1896238
  66.1458874  32.9985952  11.3609552  66.1625290  33.9147663  11.0842204
  65.2683163  32.8733778  11.7220938  61.4552546  24.4511366  27.6032543
  60.7195330  25.0174880  27.8360438  61.5877962  23.9011383  28.3753729
  74.9625397   5.7390380  90.3435421  74.6009111   5.5487520  89.4779491
  75.8302021   5.3349161  90.3347492  97.6168537  16.5817785  19.9824047
  97.9993057  16.1306632  19.2297709  98.0448627  17.4379098  19.9913597
  99.5117760  49.4273853  18.2310331 100.1254177  48.9034986  17.7160347
  99.4888401  48.9976406  19.0860331  68.2563066  58.5658598  18.5355341
  68.5397291  58.2845449  19.4054580  68.6455441  59.4334269  18.4257317
  80.1002884  26.8369532   1.7253207  79.5851612  27.4410105   2.2600988
  79.9657822  27.1382046   0.8267735  81.8249130  56.8010235  53.2686138
  82.4522591  57.5149393  53.3826065  81.9077206  56.2796259  54.0670586
  28.0547380  93.4391975  81.9602776  28.6027002  92.7804279  82.3868847
  28.5341287  94.2598152  82.0743179  69.2437172  33.2630157  17.0109260
  69.3663549  34.1843867  17.2395456  70.0771141  32.8480625  17.2333908
  91.9002724  68.2060385  37.1171427  91.9479847  67.2715044  36.9156337
  92.3891830  68.6285830  36.4109874  98.5369110  22.0882916   3.9146686
  98.0820847  22.5850248   4.5948350  97.9363441  21.3755727   3.6965194
  58.8783884  22.3965907  17.7916539  58.5780334  22.6754642  16.9266391
  58.1066370  22.4803591  18.3516669  68.7779093  46.9497347  32.1346879
  68.1802320  47.6042414  32.4961233  69.2848969  47.4256659  31.4769006
  88.5125542  61.1469889  10.9548950  88.2736206  61.8421650  10.3418159
  89.3554592  60.8250856  10.6353271 103.7023735  72.3987913  39.7953510
 103.2938290  71.7662954  40.3863430 103.8928032  73.1558418  40.3492832
  88.4244633  51.1580038  55.3112459  89.1039562  51.2603617  54.6448803
  87.6148510  51.4131689  54.8689222  55.3914499  60.2600145  17.5607157
  55.1809263  60.1782274  16.6305423  55.2510118  59.3824148  17.9161358
  51.7796564  35.4616976   4.2173207  51.9400167  36.3967538   4.0900940
  52.4498749  35.1866961   4.8429495 105.5917549  64.4769907  14.0062237
 105.0405788  63.8535118  14.4792080 106.4601707  64.0744066  14.0028167
  20.1347852  18.6071467  86.3078213  20.7431698  19.3034363  86.5553761
  20.5881906  17.7978361  86.5437698  15.2400959  32.3775339   7.1381521
  14.9016643  31.6977143   7.7208543  15.6742775  32.9992723   7.7222401
  49.7003937  27.2211862  44.7773790  50.0370026  28.0193686  44.3701553
  48.9960527  27.5235105  45.3507328  89.4064522  53.7794161  19.2396569
  89.4865322  54.5083523  18.6244559  88.6666107  54.0176630  19.7983122
  66.2034035  39.5061851  28.1936955  65.4840946  39.7493958  28.7765169
  66.0332823  38.5905719  27.9724598  82.9727364  25.4181695  22.3165560
  83.4409332  24.7716904  21.7882657  82.0477772  25.2083206  22.1875787
  59.9457884  42.7879333  33.6399293  59.6205282  41.8939972  33.7462783
  60.4207563  42.9680967  34.4512105  74.1887236  24.9884987  12.8908587
  73.9488888  24.3197727  13.5323548  75.0074482  24.6717095  12.5093293
  83.4060478  63.5758877  16.6256618  83.3849621  64.5089245  16.4129949
  83.5366917  63.5491705  17.5735283 111.8789101  38.4638810  29.2883801
 111.6214180  37.7293158  28.7312961 111.0508347  38.8539600  29.5683146
   3.6422226  93.8560104  88.8504791   3.3019513  93.0138874  89.1525936
   4.4172603  94.0089989  89.3909836   0.4159566  82.4335289  46.7270136
   0.9826307  81.7031288  46.4787865   0.9647503  82.9830074  47.2865963
  96.9957924  71.1794615   5.6194562  97.3816872  70.3128004   5.7467967
  96.5881348  71.3860559   6.4605069   9.0565133  48.9885473  31.4439464
   8.6884058  48.7257528  30.6003428   9.9542630  48.6568832  31.4272928
  62.9066467  19.2122114  91.9371891  62.4505520  18.7284303  91.2485886
  63.8306189  19.1642475  91.6918278  74.3187666  62.1654940  28.2571077
  73.5834980  62.1806002  27.6444221  75.0507879  61.8227482  27.7443671
  70.6668472   6.1368364  17.8482616  70.3173923   6.3071483  16.9735575
  71.5853024   5.9119308  17.6996398  54.4317627  47.7834845   6.1394113
  55.3725052  47.9601288   6.1336899  54.0253878  48.6500978   6.1478335
  74.8655176  94.4416618  86.0538197  75.1335716  94.1200447  86.9145966
  73.9572477  94.1536045  85.9626961  81.0671425  83.7883091  13.8828981
  80.3698254  84.2504883  13.4177399  81.8598461  84.2855835  13.6814952
  62.2817898   6.4455789  31.7594576  61.8162060   5.7037044  32.1455717
  62.3239183   6.2418890  30.8251286  63.1762981  36.9887209   7.1228856
  62.2851133  36.8265033   7.4322402  63.6808634  37.1503448   7.9200852
   5.5004925  47.6653337  31.0114717   5.8032346  48.1113672  30.2205014
   4.5521107  47.7949667  31.0114288  19.6511304  74.2095280  67.9067373
  18.9985490  73.6267996  68.2950640  20.2005315  73.6334753  67.3751831
 106.2485504  61.1111832  76.0474730 106.0591412  60.2172279  75.7625198
 105.7063293  61.6623878  75.4831982  86.8150139  57.0340061  54.9809551
  86.1699867  56.6062164  54.4177771  86.6831779  56.6359234  55.8414125
  33.9700794 102.8978920  89.7859287  34.4981360 102.4554348  90.4504776
  33.2248259 102.3141003  89.6444416 105.7724762  95.9340954  73.2159424
 104.9190617  95.8799076  73.6460304 106.3891792  95.5927944  73.8635731
  87.1586704  53.9323187  20.7443285  86.7644596  53.4355164  20.0273800
  86.7582703  53.5705662  21.5349293  92.7420616  52.6137257  12.6838624
  92.3260117  51.8943596  12.2088385  92.0232296  53.2103395  12.8925836
 101.3222313  41.3531208  22.3172355 101.4371967  42.1938467  22.7601767
 102.0162773  40.7981253  22.6729274   7.9864854  88.8996220  69.2705584
   7.1694154  88.4793663  69.5389032   7.7908784  89.2781448  68.4134150
  12.1041477  74.4956398  72.4812031  11.6881132  73.9278316  73.1298542
  12.0958626  75.3644133  72.8829432  97.7409363  42.4391270  27.8689218
  97.9928303  42.9974508  27.1333575  98.4115601  42.6003456  28.5326266
  70.8743382  67.7044821  12.0200455  70.1456070  68.2577658  12.3012245
  70.4769897  67.0698023  11.4237809  38.2939911  31.5842557  10.0038743
  37.4774218  31.1035371  10.1393640  38.9816356  30.9518266  10.2122283
  98.9935875  82.3378563  73.8329458  99.3287182  81.8646717  73.0713606
  99.7500896  82.4246407  74.4129467  84.9319839  67.3868704   3.5256231
  85.7555962  67.8740692   3.5025221  85.1980305  66.4677191   3.5503301
 106.6685581  79.2158175  25.4737949 106.0401821  79.5963335  24.8601389
 106.3825703  79.5264196  26.3328457  94.5831013  72.4816608  41.4175510
  93.6385250  72.5366592  41.5624332  94.6930599  71.7276049  40.8382940
  96.8966198   4.5320779  22.4831009  96.9119453   5.4289073  22.1488929
  96.0266590   4.2056432  22.2532320 100.4517174  55.8554554  43.3873463
 101.1320686  56.4513159  43.7008858  99.7702503  56.4312792  43.0405474
  88.9945984  45.7097292  11.3734889  89.8197556  45.9704065  10.9643471
  88.4839439  46.5180588  11.4189744 106.8379593  78.2006741  40.4263639
 106.5561295  77.8538418  41.2728310 107.2824192  77.4664116  40.0026417
  10.5444443  96.9405746  56.1031103  10.0994599  97.7368832  56.3931322
  10.0950181  96.2331295  56.5654659  61.5936995  64.2362499   9.1234112
  60.9412861  64.7106123   8.6080772  61.4984083  63.3240986   8.8492972
  61.0477448  60.5301380   2.6459229  61.1022711  59.6032715   2.8786823
  61.7409754  60.6555319   1.9978973  97.0697689  99.3671703  77.6465654
  97.7422523  99.8518658  78.1251860  96.2912941  99.4275188  78.2002449
 111.8196207  74.0600491  39.4567537 111.5685641  74.8943186  39.0602827
 110.9980657  73.6933088  39.7835302   9.0504247  58.9826202  34.8751736
   9.7644693  59.4033623  34.3962693   8.7010461  58.3344841  34.2635489
  79.4997358  80.7342720  12.8337467  78.6984205  80.5391788  13.3196127
  80.2041531  80.4021835  13.3902955  42.0809746  15.5378377  36.8718863
  42.4133921  15.7275724  37.7492285  42.2222090  14.5977056  36.7603731
  90.1475143  35.4488254   8.8193882  90.3665352  35.3744388   7.8905559
  90.9012508  35.0728106   9.2740583  85.1624393  72.8077459  66.6988420
  84.7035503  72.3519945  65.9931946  85.2235603  73.7144995  66.3983440
  89.9106026  46.4005089   8.3786750  90.0389481  45.6533146   7.7943343
  89.3614674  47.0042133   7.8784472 100.5934811  19.5701170  31.5965414
 101.3317871  19.0783906  31.2369084  99.9869347  19.6629548  30.8618855
  94.0343380  66.5747929  16.1405277  94.9882412  66.5146399  16.1922514
  93.7188339  65.8907175  16.7310679  94.4193363  70.7101536   4.1540006
  93.9320946  69.9243927   4.4017890  95.2072811  70.6845236   4.6968880
  77.1357203  66.1077499  28.8681006  77.4138212  65.1949883  28.9439702
  76.2992048  66.0655403  28.4047580 112.3264599  93.7584877  84.8869801
 111.4443207  93.7856960  85.2575397 112.7644157  94.5261765  85.2545166
  29.2944607 101.0942967  90.3493077  28.6265645 101.7490943  90.1458642
  28.8513932 100.4711755  90.9251932  83.8356972  79.0992689  35.5903673
  84.2172241  78.2225418  35.6352711  82.8927231  78.9543819  35.6680751
  96.0606289  85.7723045   4.3077660  95.4884243  86.1503696   3.6400250
  95.5387306  85.7927513   5.1099098  36.8347216  43.9756823   3.5201886
  36.1818290  43.3418560   3.8172156  37.0803308  43.6744690   2.6454449
 102.5098038  59.9712801  34.5111847 102.7755928  60.8718777  34.6969509
 101.7921734  59.8025608  35.1217389  92.1483994  69.4326448  22.0446110
  92.8705597  69.6405125  21.4517379  92.1321678  70.1600504  22.6665807
  87.9115200 104.3401337  15.6179559  88.0673504 105.2098370  15.2497745
  87.6564026 104.5064068  16.5254259  74.2064857  80.1250648  29.6053290
  74.4320059  79.2161369  29.8033929  73.5355520  80.0626755  28.9254880
  85.4311848  51.6541386  31.0907698  85.9276295  50.9028625  30.7661700
  86.0215282  52.0811701  31.7115593   7.9254270  97.2082329  83.3040333
   8.3020568  97.6645088  84.0564919   8.2356322  97.7017879  82.5448132
  93.3198643  75.0449467  22.9056263  92.9423237  75.9232998  22.9524136
  93.9399433  75.0892305  22.1777701  61.4872122  10.2498364  85.3818989
  62.3142052  10.5928576  85.0432873  61.3571501   9.4279861  84.9087429
  54.1275167  43.1375837   9.2464352  54.0683746  43.9197588   8.6978602
  54.9993086  43.1855440   9.6387517  94.9166012  76.0602570  20.5533433
  95.6557274  76.0332537  19.9457228  94.1780090  76.3525105  20.0192189
   9.5850950  35.1113605  41.2827063  10.5226946  35.3013206  41.2502289
   9.1725773  35.8699489  40.8696604  34.6197748 105.8211899  89.7292900
  34.1204357 105.9686375  88.9260769  34.5516443 104.8790646  89.8841286
 108.8551140  89.7643757  10.1634455 109.5849991  89.3151855  10.5897510
 109.2362309  90.1414776   9.3704921   8.5045165   5.2756095  76.1657810
   8.3504021   4.8994839  77.0323896   7.7504134   5.8453900  76.0144186
  93.7748718  75.1073551   2.6333258  93.2766056  75.9144163   2.7622408
  93.4005165  74.4915390   3.2632926  98.1143570  21.2248564  22.0286846
  97.9645252  20.3159976  22.2889853  97.2871113  21.6676784  22.2178745
  78.7151718  12.9759204  89.2538738  79.5034027  13.0763042  89.7875881
  78.6968756  13.7592125  88.7040138 103.7133884  49.9781179  23.4426904
 103.4498310  50.8702850  23.6681032 104.5591068  49.8616076  23.8756037
  13.0748022  71.8808270  40.7416153  13.9415622  71.8490267  40.3367138
  12.8340697  72.8070021  40.7197618  79.3717384  86.3424778  25.8845067
  79.7652054  86.6952038  26.6826272  79.6389294  86.9517231  25.1962781
 105.2855396  20.8016610  34.8468685 104.6498966  20.1459169  34.5601797
 104.9557304  21.1004853  35.6943107  80.6280994  41.8262434  23.3152437
  80.2588654  41.6938305  24.1883779  80.7663250  40.9415483  22.9769564
  26.0783744   3.0217245  77.0617342  26.1184072   2.5305632  77.8823376
  26.4625525   3.8726315  77.2729111  51.4429903  79.9167347   7.7031320
  50.6207132  80.3753853   7.5306952  51.6476202  79.4740725   6.8794769
  70.7405233  93.6261749  18.4013712  70.5181074  93.0385208  19.1234660
  71.3925219  94.2222977  18.7698400  69.4158268   3.0777279  83.6125278
  69.5728922   2.3337312  84.1939354  68.9788866   3.7256086  84.1653061
 107.0306301  64.8059559  34.5854926 107.1352005  65.6977081  34.2537165
 106.1854458  64.8151112  35.0347376  32.8496861  18.1482697  68.9662790
  33.6937523  17.8893030  69.3360376  32.7089524  17.5394952  68.2411480
  89.9767780  81.3083172   9.5593792  89.4743156  81.2365723  10.3709304
  90.4031086  80.4564571   9.4655269  71.4084005  68.2264233  51.7259359
  71.4841795  68.5112572  52.6366282  71.4826298  69.0329266  51.2157679
 103.4173775  82.1177006  67.0363283 103.7003517  81.3447762  67.5249338
 103.6878300  82.8573036  67.5804615 112.3347282  74.4744492  54.4360065
 112.4320889  74.1432810  55.3287983 111.9885159  75.3601027  54.5454884
  83.3973980  80.0983143   8.7662625  82.9364300  80.1772404   9.6014345
  82.7024937  80.1006508   8.1079853   5.7318813  45.1891470  23.3809972
   6.5742302  44.7643614  23.5429835   5.4499745  44.8464155  22.5328851
  92.8925228  61.5905094  40.6410360  92.0946693  61.6528416  40.1158953
  93.2563972  62.4757767  40.6298542  99.2981625  46.1342430  23.4507060
  98.4446430  46.1854506  23.8809538  99.9023724  46.5477896  24.0672588
 100.3512764  86.2167835   0.5909234 100.5866718  86.6371727   1.4180283
 100.6189346  86.8437004  -0.0810674 105.9550858  28.9790440  28.7803245
 105.5214119  28.7053800  27.9720736 106.0113621  28.1799912  29.3043280
   1.4761052  46.1566257  36.8293643   1.6502869  46.2196016  35.8902550
   2.2732149  45.7736397  37.1956515  12.6570284  67.1217489  34.4523835
  13.4265852  66.9585562  34.9977112  12.1314454  66.3260889  34.5355582
 110.8209038  55.4009581   8.4532869 110.6784058  55.2792072   9.3919575
 110.5894756  56.3157511   8.2925701 105.8171463  90.1096439  24.5066094
 105.8601379  90.5148315  25.3727508 104.8971081  89.8676586  24.4007874
  67.9049063  51.1461067   8.9966816  68.2592106  50.3250408   9.3380749
  67.8610563  51.0127163   8.0498362  77.8927374  58.6992979  17.0746565
  78.3038425  57.8681850  17.3123062  77.7558041  59.1462564  17.9099464
  97.4965668  85.0877953  32.9071712  98.2292938  85.2100945  32.3035359
  97.8169537  85.4242516  33.7440538   4.4971767  87.1102905  28.5851192
   4.5652208  87.6747417  29.3551850   5.4039061  86.9021034  28.3598804
   2.4074127  65.2682829   5.1560837   2.2318535  64.4644928   5.6452930
   1.6268396  65.8057690   5.2904373  96.2410831  41.6162395  23.7013555
  95.7794476  40.7790947  23.7494063  97.0508766  41.4165878  23.2316685
  69.1159344  17.0893085  81.2090874  68.9041090  16.5012693  80.4841232
  68.2930660  17.5391185  81.4008999  14.4122577  65.3009033  16.3346720
  14.4811964  64.3559694  16.4709747  14.3920827  65.6694460  17.2178483
  26.4380956  14.6478188  82.8528595  27.2607708  14.6493268  82.3635387
  26.6082358  15.2093148  83.6091709 110.0937748  45.9357500  28.5884762
 109.7080994  45.6698608  27.7537346 111.0374165  45.9332466  28.4279346
   2.7964562  29.8359537  61.9092321   2.8930703  29.7295356  60.9628820
   3.0517679  28.9881349  62.2728920  94.9441338  59.0410423  28.2888103
  95.6488800  58.8643074  27.6656508  94.5621300  58.1819296  28.4683394
  13.2159185  51.6647243  19.0391183  13.2984805  50.7502651  18.7686121
  13.3097851  51.6421986  19.9914384  65.4564524  91.3581371  25.8801603
  65.1369524  90.6626225  25.3053451  66.4020395  91.3754177  25.7325101
  27.0331359   9.9872261  20.6725883  27.2004294   9.0477568  20.5974746
  27.8844261  10.3652096  20.8931971  97.5506592  55.9828424   5.7767355
  98.3782673  56.4248323   5.5871552  96.8779373  56.6083670   5.5076689
 106.7989731  49.1182804  11.4931679 106.7192745  48.2821274  11.9522202
 106.3926888  49.7543764  12.0818484   8.1459439  44.8515081  26.4823341
   7.3786622  45.1886988  26.9447303   8.1675732  45.3450775  25.6624866
   8.2356793 105.6693459  80.8143711   7.3685730 105.4039288  80.5079269
   8.0728710 106.4445686  81.3517380  94.4373608  12.1913302   8.2161957
  94.2729187  12.1096945   9.1556251  94.8889923  13.0302477   8.1241089
  83.2589531  10.0767994  29.3184996  83.1632423  10.8654463  29.8524547
  82.6574612  10.2092075  28.5857558  84.1039848  64.7060633  67.2317362
  83.3299065  65.1710606  67.5492287  84.7443771  64.7973442  67.9372835
  66.0776138  42.0458031  15.0644219  66.4696026  41.1849737  14.9176300
  65.4301119  42.1364927  14.3653154  95.2733517  71.0368252  22.4047875
  95.6136703  71.7915010  21.9242859  95.1484299  70.3635406  21.7359757
  52.7308941  37.9967880  20.9227872  52.5673866  37.7174664  20.0219679
  52.9785442  37.1938777  21.3813019  79.1690207  61.6505337  15.6843019
  79.8046446  60.9544325  15.8506215  79.5644188  62.4328232  16.0688996
 106.9636726  83.0276489   4.1765735 106.2989330  82.4619007   4.5693466
 107.4043369  83.4334278   4.9231592  20.7564139  40.2055931  23.5964537
  20.6745315  39.7796369  24.4497347  20.3545570  39.5910192  22.9824138
 103.0438328  68.8296413  16.6541123 103.5940266  69.5255280  16.2945819
 103.1227112  68.1126976  16.0248256  92.9098892  72.3634434  23.2390094
  92.9063606  73.3096600  23.0944777  93.7788486  72.0808411  22.9539132
 108.8165760  58.0773401  18.4715807 108.6196899  58.9613724  18.7813520
 109.7677612  58.0672073  18.3649528  41.3457537   0.6365347  70.6611729
  40.6160688   0.9209976  71.2115049  40.9295130   0.1946918  69.9210739
  96.9627380  91.3649940   5.5600083  97.8974628  91.4678764   5.7386833
  96.5836525  91.1165428   6.4030993  95.3837395  17.8766155  74.7418690
  94.6986866  17.6891887  75.3835869  95.7380867  17.0176423  74.5119953
 105.2140427  34.0785789  21.0312986 105.0334167  33.7436104  20.1530027
 106.1272240  34.3633294  20.9959245  86.7245388  71.5012264  58.9719915
  86.5610409  71.3511133  58.0408812  87.5688553  71.0817671  59.1375828
  52.6312637  70.5705214  20.2668476  51.8301439  70.6660843  20.7819271
  52.6700449  69.6378374  20.0551081 109.3967152  26.1181736  90.8263683
 109.8893929  26.0765934  90.0067425 108.6618900  26.7008948  90.6348133
  56.2145519  12.9166090  82.3077011  57.0100069  13.1336200  81.8215084
  56.3291264  13.3429766  83.1570053  98.9290237  45.7024240  28.9967346
  98.8298607  45.0697613  28.2853031  99.7202396  46.1924458  28.7729311
  15.8765471  25.3616238  63.0157566  15.0725424  25.7764792  62.7031803
  16.5104127  26.0769534  63.0681896  59.4588900  52.9502487   3.7962663
  58.7217999  53.5565805   3.7235484  59.6205950  52.6610136   2.8982532
  89.5296860  43.9307213  21.8625164  88.5816669  44.0266705  21.9535112
  89.8105049  43.5339022  22.6870847 100.2055740  94.5465279  77.1910858
  99.8276329  95.0926590  76.5017891 100.9993935  94.1820240  76.7996407
  33.6400557  78.6938715   8.6792159  32.8873992  78.4720945   9.2274457
  34.3984127  78.3963299   9.1818047  85.4262829  80.9866142  13.0234301
  84.4705963  81.0252094  12.9860997  85.6873512  81.8416786  13.3653939
  70.2823782  49.4134331  34.8611236  69.8744869  49.6258831  35.7005978
  70.2639818  48.4572506  34.8210692  40.2017832   7.0600682  55.3704214
  40.3615475   7.9968309  55.4852343  39.5009494   7.0145720  54.7200394
 101.1794281  31.8415475  25.9824038 100.7870293  32.0434976  25.1330113
 101.9150448  31.2651300  25.7754254  70.8565712  69.2607975  45.6095934
  70.2538919  69.4906425  44.9023581  71.5169430  69.9535847  45.5961609
  90.8254719  22.4713898  16.4966774  90.2467155  22.7222514  15.7767189
  91.6612148  22.8892136  16.2888646  11.4583135  63.9524937  41.9057083
  12.2115493  64.4248533  41.5511036  11.2751746  63.2724953  41.2574053
  34.1738248 103.8240623  87.0499706  33.8548684 103.8562870  87.9518890
  35.1022196 103.6058807  87.1318913  72.3224401  57.4346209  18.9779496
  73.1856441  57.0426798  19.1101909  72.3555660  57.7932882  18.0911052
  88.7574577  68.9935637   7.8092074  88.2890320  69.7720480   8.1104982
  89.5918655  69.3283033   7.4806499   6.1063057   6.3122934  38.2069445
   6.8450141   6.2115937  38.8072777   6.4563394   6.0610539  37.3521996
  65.4238415  40.5207682  34.2225552  66.0696077  39.8836660  33.9170742
  65.0105524  40.1001787  34.9765611  82.7484989  20.3521752  48.3633280
  82.7768230  20.6704235  47.4610281  83.6382198  20.0447583  48.5369062
  10.0579584  65.6621504   4.6603492  10.0391209  65.9702110   3.7542719
   9.5700812  66.3251019   5.1489174  84.1604519  67.9605198  18.7406826
  85.0180054  68.3643389  18.6073768  84.1584778  67.7011633  19.6620750
 101.1655140  48.7862444  24.4213820 101.9807625  48.9331818  23.9417839
 100.4760647  49.0052986  23.7945604  82.3675919  69.9855471  18.7722254
  82.8214741  69.1468620  18.6895573  83.0412197  70.5934000  19.0771472
  22.4901533  19.1216731  81.1431217  22.0167470  19.4392943  80.3742027
  21.8098950  18.7579739  81.7098713 100.1039505  64.5731592  22.7269530
  99.6039486  63.9802456  22.1659875 100.2357960  64.0816259  23.5376573
 105.8438587  93.2817554  77.2201490 106.1723423  92.5619221  76.6814756
 105.5098152  92.8566933  78.0100679  29.5457268  59.9929667  47.3474264
  30.2904201  59.6612644  47.8490591  28.8356352  59.3805361  47.5395966
   7.0240551  43.6260748  29.0443611   7.7419227  44.1982889  29.3154168
   7.3376739  43.2130861  28.2398033  73.2574701 103.8454151   8.4176636
  72.6796341 103.1370735   8.1337774  72.6810217 104.4542313   8.8794899
  92.5024796  64.8763227  21.4150095  91.8979549  65.0506496  20.6936264
  92.4256229  65.6432676  21.9825625  27.6467586 105.1909924  82.7532291
  27.2178245 106.0201931  82.5418568  26.9570661 104.6588802  83.1499767
  92.8771305  86.7190838  10.7821667  93.2946396  86.3559723  10.0010967
  93.2551670  86.2230968  11.5083361 112.5343800  93.9132690  51.4142036
 111.7816544  94.0765762  50.8458900 112.4711227  94.5840359  52.0941353
 107.5955296  41.1452818  43.3749676 107.8744602  40.2403164  43.2354546
 108.3006191  41.5364170  43.8908148  37.5627398  64.1566038  55.4002380
  37.3358870  63.3561707  55.8735991  38.2510352  64.5605135  55.9287596
 110.8547497  33.5495543  26.4980841 109.9979973  33.5026264  26.9223475
 111.4502144  33.1208038  27.1127605  27.6862502  99.0052223  67.6748228
  27.8603172  98.3252048  68.3256006  27.5128007  98.5238075  66.8658829
  75.7780552  42.4428463  10.9007871  74.9937296  42.0378590  10.5305922
  76.1976576  41.7412090  11.3986552  33.9614367  11.9795024  81.4979839
  34.0388298  11.3545442  82.2188663  33.7872505  11.4373183  80.7286167
  82.5714397  60.9608889  40.3806877  81.7237568  60.9679842  40.8252239
  83.2081223  61.1246061  41.0764360  19.1236424  89.8797607  82.5556660
  18.7709522  89.5418739  83.3788776  19.3587458  90.7870007  82.7502823
  88.4574318  67.5560188  35.3760576  88.0930901  67.1872616  34.5713758
  88.3055019  66.8820810  36.0385942 109.3425465  34.9061656  22.2403526
 109.8279858  35.7301712  22.2803330 109.8091888  34.3239403  22.8399277
  92.8136635  53.5952425  22.5751638  93.0822086  52.6775599  22.5306797
  91.9816494  53.6244917  22.1027923  77.5735950  50.6342411   6.6271627
  78.1284571  49.9425840   6.9876730  77.7429771  51.3927937   7.1858567
  49.0925217  89.5943069   6.0180354  49.9758720  89.7593594   6.3477045
  48.5154200  89.9931622   6.6692644  72.1778631  51.5255785  30.2915001
  72.6448584  50.7338953  30.5586767  72.8388071  52.0540857  29.8442078
 101.8551540  66.7113972  54.1617250 101.3875294  66.2053061  54.8261309
 101.1638641  67.0908594  53.6191702 110.9105778  83.2409382  24.4806433
 111.5499020  83.6982536  25.0268626 111.1979389  82.3279381  24.4889641
  94.9380589 101.3433743  35.1036358  95.4686546 101.6616631  34.3732977
  94.1573429 101.8970585  35.0916576 110.4337215  79.1512632  26.9601512
 110.1041126  78.2541037  26.9081974 111.3098049  79.0631962  27.3355985
   1.8737988  81.8722153  11.3194704   1.6565566  81.6007805  12.2112989
   1.3522279  82.6618481  11.1756861  95.6479740  64.8722267  52.2955751
  95.8079243  65.5745459  51.6651821  94.9485874  64.3510962  51.9012070
  78.0408096  44.0184069  14.1979027  77.9616213  43.2889557  14.8126078
  78.9584589  44.2839432  14.2582548  79.2720413  53.0956793  41.3348484
  79.0222740  52.2456408  40.9725142  80.1540089  53.2504225  40.9965992
  93.7877274  33.1171632   7.9608446  94.7244072  32.9205894   7.9457694
  93.3838558  32.3960209   7.4780667  86.5215206  45.7480097  22.9397774
  87.4490643  45.9777832  22.9953790  86.5136909  44.8788691  22.5388217
  86.4063168  15.5462241  90.3026867  86.0123444  15.0222504  89.6052170
  87.2499752  15.8241940  89.9460316  75.1757908  60.0204897  19.5327568
  75.0302553  59.0748501  19.5042682  74.6923494  60.3140640  20.3049827
 111.8844414  52.1697760  29.9172854 112.1410656  51.3980150  30.4220247
 112.1167660  52.9104090  30.4773951 100.5186749  66.9254589  18.9306831
 101.4208031  67.1079397  19.1935372 100.5745029  66.7447376  17.9923570
  96.5471363  49.8374033  44.7724771  95.8595848  49.1763830  44.8534489
  97.2006226  49.5843983  45.4245377  12.1531212  94.2279243  89.9123287
  11.9967294  93.3332443  90.2145290  12.3057020  94.1397095  88.9714909
  94.8430538  54.4330549  16.0883808  95.7669353  54.1828632  16.0975444
  94.3733501  53.6099672  15.9537113  64.2896366  63.5946321  19.1215765
  64.1588688  62.9713726  18.4069610  64.2771673  63.0570984  19.9134934
  96.5686131  55.2103806  36.9883728  96.8993855  56.0852766  37.1917892
  96.9043732  54.6573734  37.6938343  40.6001186  17.1234667  82.3381615
  39.7147560  16.9559252  82.6611137  40.9555769  16.2544477  82.1519184
 106.7062569  53.2724285  20.4902601 106.5624332  53.6182451  21.3711429
 107.2278690  53.9443874  20.0513649   0.7137327  29.7746515  48.3735466
  -0.2341787  29.6554732  48.4326410   0.8587794  30.6803584  48.6472034
  13.2014441  72.1043873  21.9384503  13.7663627  71.6980791  22.5957227
  13.1550431  71.4606428  21.2315774   3.5130107  69.8904753   5.9679103
   4.2292136  70.0956488   5.3669202   2.7285951  70.2143526   5.5251604
  76.7706966  73.6363840  18.9540470  76.0982037  73.1050587  19.3802893
  77.5984383  73.2667351  19.2613506  97.7193451  81.0402679   1.9659989
  98.3539677  81.0123825   1.2499586  97.9475975  81.8291283   2.4577519
  60.7561398  12.2667396  70.5991411  60.6510687  12.8939867  69.8837709
  61.4623213  12.6294422  71.1339188 106.2697029  71.4779902  34.6100044
 106.8726826  72.0793629  34.1729593 106.8337059  70.7951212  34.9730849
  93.3922005  78.5956144   7.9581636  94.2057610  78.4069347   8.4258723
  93.4730911  79.5130396   7.6973718  36.1229205   5.0835925  90.5188370
  36.2827396   5.4652327  89.6556854  35.5002570   5.6809038  90.9332561
  13.3853769  92.4770832   6.7625988  13.4673905  92.6486874   7.7007139
  14.2369878  92.1212769   6.5088469  64.8236465  89.4865990  23.6821151
  65.4829311  89.3679523  22.9983711  64.0476131  89.7966480  23.2153487
  85.1405525  52.6686144  12.4218571  84.3768311  53.0757570  12.8307521
  85.7012558  52.4194384  13.1565404  91.3727570  53.7491751   3.5034686
  91.5184689  54.0372467   2.6023483  91.0157394  54.5190430   3.9462668
  73.5144663  48.6978102  30.9600091  74.1556263  49.2114735  30.4687858
  73.5050011  49.0957737  31.8305063   5.5013955 106.1256504  16.3888311
   6.0715532 105.9559631  17.1387362   5.5417526 105.3219128  15.8705580
  82.7888680  58.6172819  36.7516327  82.5538254  57.8161716  36.2834311
  83.7389755  58.6814165  36.6545916  67.8909254   7.3245174  87.1546459
  67.3003578   7.9996204  87.4888611  68.4215975   7.0746720  87.9110813
 101.1379910 102.8024769  13.8205862 100.9070492 103.5367870  14.3895197
 101.2631607 102.0659733  14.4190216  83.6126804 104.6390820  24.4932508
  83.7287807 105.5735493  24.6650600  82.7492237 104.5760822  24.0849686
  83.2717037  64.4585896  27.4029231  82.9781532  65.2282906  27.8903866
  82.4695873  64.0878820  27.0349216  17.2661316  73.9798546  44.5206594
  17.0782244  73.0420446  44.4827366  18.1339180  74.0342569  44.9209356
  57.3563528  22.1172523  64.7486067  56.7302132  21.4293051  64.5229673
  57.0860481  22.8693199  64.2217636 103.0677795 101.4390659  24.9182367
 102.1197701 101.5557861  24.9805713 103.1773376 100.5658627  24.5417356
 105.9100533  69.7496033   5.9999251 105.0457668  69.3383074   6.0082716
 105.8075428  70.5108452   5.4287565  46.3960314  89.4211388  49.9525452
  45.5481958  89.5429039  49.5252514  46.7521906  88.6261463  49.5558596
  70.0468731 101.2692261  13.4848392  69.8407412 100.3547668  13.2911587
  70.9151077 101.2391090  13.8866985  85.4348660  88.0242348  21.0711169
  85.5357075  88.5055256  20.2498865  86.2807560  87.5961590  21.2032747
  75.9433413 103.6127853   8.5826319  76.1206961 104.1481209   9.3560666
  75.0034380 103.7134743   8.4320498   5.6334764  73.0992508  50.2520323
   5.7705820  72.6714849  49.4067764   6.1160487  73.9231443  50.1845837
  77.1335411  35.1470566  83.9787388  77.4134541  34.2625451  83.7431145
  76.2159729  35.0482130  84.2327595 104.9467278  38.1091809  48.3688831
 104.9045849  37.1541715  48.3197594 104.2911053  38.3444071  49.0254402
  28.6373894  46.6125347  91.7937499  29.2036717  45.9708359  91.3650532
  28.1181710  46.0984852  92.4121345  18.2290125  86.9096661   5.0554037
  18.7642384  86.1256599   5.1782739  17.6306903  86.9107151   5.8025593
  66.5950727 104.6335316   7.8434086  66.7572069 105.0669384   8.6813247
  65.9582806 103.9485836   8.0473000   8.1582481  70.0566244   5.2216536
   8.6062098  70.8104801   5.6054044   8.8621897  69.4471169   4.9998450
  96.0219955  86.4294052  24.5307255  96.3745499  87.1837997  25.0027728
  96.3182163  86.5514755  23.6287355  46.5063095  36.6941357  23.4536672
  46.9379330  37.0279312  22.6672101  46.9567347  35.8710408  23.6430359
  84.0817165  66.0990000  59.1170263  83.3912563  66.5416956  59.6105099
  84.7229767  66.7856026  58.9337301  93.7772083  57.6403189  42.3860312
  94.5316029  57.9728413  41.8996716  93.1691360  58.3788204  42.4191332
  56.3894749   5.7392615  23.1480503  55.9822845   5.5799586  22.2965503
  57.1805477   5.2004039  23.1398129  22.6475859  94.4455147  10.7828343
  21.7071533  94.2906570  10.6942892  23.0419898  93.5771179  10.7018375
  57.0505333   4.8679516  52.4168682  57.5650883   5.6456935  52.2010422
  56.1469173   5.1172096  52.2230005  86.2560844   8.9252692  62.3573542
  87.1317101   8.5445780  62.4249697  86.4071655   9.8218566  62.0581245
 103.5011005  92.5837803  28.9204955 103.8469696  93.3418369  29.3916273
 103.3156109  92.9126453  28.0409074  49.3364811  68.4573364  14.6307755
  49.7783184  68.6760378  15.4512548  49.3705368  69.2647552  14.1177940
  26.2242436   1.8186863  18.2741690  26.9565272   1.5277813  18.8176453
  25.7832551   2.4839142  18.8025939  61.6857195  77.6823378  22.7152300
  61.6477251  76.9777775  23.3620572  62.3014116  78.3146906  23.0857491
  88.5366440  73.7373018  31.6267085  89.2560291  74.1900396  31.1865425
  88.0316067  74.4366693  32.0414996  30.7428360   8.6028755   1.2323979
  30.2605152   9.1291392   1.8700856  30.1121521   7.9456508   0.9382439
   6.0586894  76.2203264  18.5016894   5.4580963  76.8421412  18.9126182
   6.7562485  76.0996199  19.1459513  30.8841777  54.7452688  90.4716396
  30.4224491  53.9264965  90.2909279  31.7377853  54.6364212  90.0524235
 112.3662853  83.6330128  11.6483784 111.5351200  83.1880665  11.4827907
 112.1987057  84.5469189  11.4183104  93.2366562  77.4593878  52.1075583
  92.6814651  76.9025087  51.5617752  93.9035511  76.8665886  52.4540710
 102.8486061  93.1873512  50.6942892 103.1886482  93.0760384  49.8064756
 103.5576630  93.6201763  51.1698246  30.8128405 100.7611942  83.2826042
  30.1934052 101.3076496  82.7989483  31.6687346 100.9925556  82.9218388
 106.9892120  86.5466595  13.0858290 106.3865376  87.2750664  12.9360044
 106.8640518  86.3177967  14.0068007  18.3466244  92.2892284  23.8561153
  18.8604951  93.0723763  23.6590290  18.9137149  91.5607452  23.6032295
  36.9907403  31.8952990  81.5594578  36.8148184  31.5330338  80.6910992
  36.4849305  32.7074695  81.5871334 107.6127338  70.3744221  37.8425956
 106.7952061  70.1477766  38.2858992 107.5397587  71.3132572  37.6708555
  91.6345596  71.0948372  27.8164029  90.8067322  71.4372921  27.4792528
  91.8289280  71.6434097  28.5763526  95.9611034  55.9403944   8.9591652
  95.1389027  55.5127287   9.1985869  96.6083145  55.5671835   9.5575470
  79.6303272  71.7834473   5.7968086  79.5820713  72.4156618   6.5138942
  80.3686714  71.2185574   6.0248119 111.0488510  41.3969803  24.5074868
 111.7456627  40.8620548  24.8876739 111.2118626  42.2777605  24.8449683
  19.8335361  91.2215996  16.2222242  20.7842040  91.1943531  16.3304901
  19.4919753  91.2669659  17.1152580  83.1471729  81.1526394   4.9917060
  83.2161331  80.2020645   5.0805533  84.0388298  81.4715481   5.1312935
  81.7109871  75.4094028   8.5562277  82.4806786  75.0273466   8.9779329
  81.7424583  76.3359308   8.7945437 102.3171997  79.0982151  37.3776889
 103.2710648  79.0300941  37.4194717 102.0853233  78.7016916  36.5379071
 101.8806934  69.6761656  18.8895893 102.1226120  69.1474485  18.1292152
 102.4386501  69.3497896  19.5955575 100.6034756  91.3667679   2.6028684
 100.0611019  92.1479988   2.4945250  99.9862289  90.6372070   2.5482035
  83.3610439  81.0974503  22.6347876  82.7713013  80.5047894  22.1687412
  83.5768795  80.6334114  23.4436870  82.8756714  57.9451990  16.6934669
  82.2394085  57.9707336  17.4081314  83.6254787  58.4409428  17.0225096
  75.9599924  46.2876511  26.9244218  76.1095333  45.5553675  26.3264012
  75.8138943  47.0396185  26.3504601  79.1316891  74.2173386   7.1957022
  78.9533043  75.0237894   6.7119181  79.9189663  74.4121742   7.7040929
  65.2417135  28.3933759  91.2050724  65.0693035  29.3285251  91.3146210
  65.4981947  28.3030128  90.2873135  10.9597158  32.6893711  39.2258549
  10.4940867  33.1596589  39.9174118  11.7964947  33.1473112  39.1463327
 100.9116268 102.0748329  29.9405527 100.6005192 102.9508209  30.1687741
 100.5897236 101.5147591  30.6469059  86.8268681  84.0867424  11.7261481
  87.0708466  83.3027267  11.2341869  86.4490986  84.6729851  11.0705340
  14.1492712 102.0236778  12.7575338  14.0699029 101.0722542  12.6887751
  14.6147001 102.1662521  13.5817182 100.1298904  97.7047634  10.6260753
 100.6148148  98.2120132   9.9750930 100.1173592  98.2627583  11.4037108
  94.6843243  44.5179892  27.8577352  94.9273300  44.5461798  26.9323254
  94.7884655  43.5991144  28.1048274  98.4926033  52.2424269   4.8568454
  99.3351460  52.6381874   5.0798374  98.3513737  52.4801493   3.9404532
  57.1658182  40.5642462  87.9590607  57.7620029  39.8315334  88.1137371
  56.6658068  40.3067875  87.1845055  66.8866825  88.6608505  26.9361091
  67.2725821  88.4699059  26.0812092  66.0682583  88.1645393  26.9457006
   5.0086719  74.3086290   5.0408083   4.7691429  73.8412666   5.8410788
   5.6444275  74.9642563   5.3275067  27.8808188  46.2532902  74.4047976
  27.1367788  46.2838840  73.8033819  28.5960293  46.6678619  73.9222670
  15.4944146  71.2714195   3.4130865  15.2880645  70.8898687   2.5598165
  16.2775671  70.8029079   3.7018797  86.0298157  68.4596109  49.3175316
  85.8468246  67.5248241  49.2230892  86.8267918  68.4954166  49.8464775
  70.0216103  17.5426137  83.9169312  69.8192787  17.2139394  83.0409908
  69.4959211  18.3380449  84.0016270 103.3083820  45.0331640  38.2874727
 103.5472775  44.2417717  38.7700319 103.8704300  45.7159042  38.6538196
   7.6975435  58.9053631  20.1789522   6.9890672  59.4830608  20.4627705
   8.4018862  59.0634727  20.8075500  33.3054161  74.1677427  34.6246362
  33.2305050  73.7844038  33.7507534  33.7243295  75.0159931  34.4789815
  97.5823402  72.0567846  33.4623957  97.8254223  71.1402988  33.3312869
  96.7354488  72.1448755  33.0250692 107.0155239  24.0550900  86.7743874
 106.8843174  23.3063483  87.3561192 106.1309624  24.3634033  86.5776062
  77.8251505  77.6709700  23.7985301  78.1253481  77.4269390  22.9229951
  78.1010723  76.9445419  24.3574572  18.1292415  88.1625748  21.9972467
  17.8818500  88.3894825  21.1008406  17.3487508  87.7463245  22.3630357
  32.5198746  71.9748163  15.0282705  33.1249738  71.5187740  14.4433665
  32.2839737  71.3207626  15.6861436  98.3659554 103.2443142  45.3308535
  98.2060051 102.9634857  44.4298649  97.6252270 102.8943443  45.8258963
  19.5069361   5.4335713  44.3563509  19.8818159   6.3040835  44.4901609
  18.8598168   5.3413969  45.0556183  89.4968414  67.0262527  23.5839319
  89.1197109  66.4059734  24.2078352  89.3828678  66.6071653  22.7309299
 100.1891804  91.4563465  26.5389562  99.9597740  92.1284389  25.8971643
  99.9563599  91.8421745  27.3834443   5.3649950  66.2909842   2.8089747
   4.7536677  66.7510271   3.3841917   5.9587485  65.8354378   3.4057701
  74.3952656  27.0685673  86.8679523  74.1435909  27.9718876  86.6758442
  74.7177267  27.0961905  87.7687836  95.1064968  69.8283148  10.5036867
  95.3640556  70.7437038  10.3943491  94.8533249  69.7590446  11.4241970
  15.5404568  50.4641151  10.6670713  15.2512264  49.8266125  10.0142550
  15.9639597  49.9374485  11.3449359 103.0911160  53.6645460  43.0064297
 102.1488380  53.5869646  43.1558132 103.1850052  54.4546318  42.4742746
  89.5109844  80.2852249  17.8341079  89.3773079  79.3732452  17.5759220
  88.8665962  80.7755756  17.3236787  23.8772631  87.5100708  38.6660528
  23.7437320  87.5960827  37.7221227  23.6665964  86.5957355  38.8554120
  85.0551987  60.8970213  86.5037441  85.3708935  60.8118010  85.6041336
  85.6002045  61.5855980  86.8846130  11.6113508  47.2435474  84.3634415
  11.2809670  46.5972519  84.9874496  11.2732553  46.9531965  83.5163212
  64.2503881 103.8796711  27.3923421  63.8754129 104.6459389  27.8264689
  63.6071968 103.6446381  26.7235374  82.8380108   5.9836352  33.1153774
  83.7026024   5.5992067  33.2600307  82.6093292   5.7292938  32.2213697
  86.6427135  83.1655502  81.0608768  86.7026043  82.5937271  80.2955914
  85.7412148  83.0636215  81.3660622  42.8338718 104.5566368  26.9520569
  43.0041838 105.4963303  27.0169044  42.9340601 104.3587589  26.0209084
   3.5730794  58.1829882  83.4064293   4.0665358  57.3850393  83.2166576
   4.1048157  58.6450005  84.0545273  88.8729572  30.1604104  16.0324514
  89.5495319  29.4899702  15.9376121  88.7316036  30.2261233  16.9768727
 110.6472206  54.9414206  63.3101606 110.7086658  54.8389244  64.2598724
 110.3238201  54.0961456  62.9984570  16.8212771  51.9572592  72.3614979
  15.8807003  51.8088865  72.2638607  17.0890188  52.3514414  71.5313339
 106.1004829  69.1357565  66.4155197 105.7752609  69.8782206  65.9064007
 105.9457493  68.3751202  65.8554125  19.3635094   9.4875336  90.3951359
  19.2049599   9.4818825  89.4511700  18.9768183   8.6696643  90.7078457
  57.1656656 100.4479313  38.4271193  57.4130201  99.7767544  39.0631771
  57.7811480 100.3305721  37.7034879  50.5581474  24.0576410   9.0266091
  49.8532581  24.4502902   8.5116440  51.3610172  24.4020224   8.6354136
  26.7951822  74.5957279  39.8797750  26.0325432  74.6941233  39.3097472
  26.4411926  74.2373562  40.6937122 107.3075390  34.5117283  13.6372709
 107.4036789  33.5631609  13.7221754 108.2048416  34.8385000  13.5717094
  70.6518555  16.3199854   6.2842005  69.9483204  16.9070423   6.0073763
  70.9674072  16.6952705   7.1062827   2.3635042  77.4583864  75.6432438
   1.9729857  78.3148193  75.8171606   1.9666396  76.8778563  76.2926388
  96.4950943  20.3726792   3.5751709  95.6199360  20.6233096   3.2793680
  96.3466072  19.9179387   4.4042617   0.9888019  69.9070787  73.5347176
   1.8366334  70.3475285  73.4762335   0.8720034  69.4975567  72.6774645
  25.5434322  47.5991774  75.8493042  25.3751516  46.8920946  76.4721584
  25.7390189  47.1516943  75.0260592  26.2639737  85.2802658  68.4211206
  27.1295285  85.3127098  68.0136967  25.8547711  86.1115170  68.1806850
  57.0004272  19.7001183  17.2283256  57.8909254  19.3595576  17.1430898
  57.0522594  20.5937219  16.8891811  84.4967556  90.0504017  86.6577244
  84.3297291  90.2119637  85.7291603  85.4274940  90.2432060  86.7707443
  63.1791544   8.0734050  23.5323215  64.0923786   8.3590448  23.5580802
  62.8644753   8.1960750  24.4279575  26.8060303  95.9195900  14.7567630
  27.7076030  95.6342983  14.9051046  26.3327169  95.6336975  15.5380905
  94.3486264  58.2265980  91.2533892  94.4090989  57.3994861  91.7313651
  94.3556741  58.8983388  91.9352595  59.2408466  96.1860657   3.0259138
  58.6753035  95.7939053   2.3606297  58.9796352  97.1066189   3.0499440
  64.6765757  43.5351086  11.0276818  63.8560057  43.2253790  10.6443262
  64.5483685  44.4771242  11.1390543  53.0380630  83.8780785  84.0471077
  53.0794430  82.9555130  83.7952995  53.7459755  84.2928886  83.5541344
   1.3907784  43.9657307  30.3508973   1.8197079  43.6004400  29.5770645
   1.9473854  43.6978960  31.0821199  28.8858008  55.0053072  67.2865725
  28.3100033  54.2453814  67.2017097  29.5226312  54.7499323  67.9540014
  32.4271192  87.5828837  -0.2465835  32.1954526  86.7096613   0.0697121
  32.3994817  88.1356428   0.5343899 112.8090282  64.5469761  88.0443859
 112.1314731  64.1530085  87.4948978 112.4361987  64.5405102  88.9259624
  20.4730010  80.3647614  37.9798341  19.7134912  80.1312733  37.4461102
  20.4192305  79.7849560  38.7395477  70.1715136   5.4633468   0.7515496
  70.5797005   4.7054720   1.1701670  70.1219416   5.2274728  -0.1748077
 101.7990780  68.1100559  81.4511585 102.0691776  68.4808254  80.6110382
 101.2439156  67.3661995  81.2172794  34.5253563  53.9931917  28.9239812
  33.9112997  54.2241669  28.2269764  34.8467469  53.1246567  28.6819410
  82.7476215  45.4737473  17.4848402  83.6900997  45.3436852  17.5899768
  82.3567104  44.6590900  17.8006792  55.2007151  56.5919256   6.5120214
  55.9869719  56.2032843   6.8954140  54.7829580  57.0537758   7.2389388
 110.0726795  58.6748838  78.5321856 110.9644890  58.3644056  78.3756495
 109.7690964  58.9735031  77.6749277  64.7217703  55.3814888   5.9454530
  65.3665113  55.7510328   5.3421497  63.9137363  55.3363800   5.4342949
   7.8466088  55.3725672  80.3979206   7.8062141  56.2800264  80.0960732
   8.6176336  55.0093317  79.9622440  95.7196808  15.9905910  50.7725334
  95.6995583  16.9138026  51.0245371  95.5877972  15.9981680  49.8244953
  63.7877750  10.1771975   9.4088018  62.8805828  10.1038718   9.1124046
  63.9445162   9.3718278   9.9017978  70.3672218  11.8408358   3.9206180
  70.5137491  12.2038567   3.0471322  71.1904764  11.4044499   4.1398224
  31.6357422  24.4685388  62.0607328  31.2155652  25.2548909  62.4090672
  32.5343990  24.7399974  61.8737602   0.9559157  39.4188929  56.7466927
   0.0007763  39.4000888  56.6868019   1.1540454  40.2643108  57.1494865
  79.6262836  14.4894397  43.8579035  78.7714195  14.3069315  43.4678650
  79.4412422  15.1146054  44.5587301  69.1878605   8.2151884  23.0101395
  69.5103931   7.5414783  22.4115419  69.7643757   8.1546986  23.7718487
 102.0477962  48.3609581  72.3641205 101.2384987  47.8628016  72.2495842
 102.1331787  48.8680840  71.5567970  83.1074905 100.1509953  15.4039824
  82.2785473 100.2157402  15.8782184  83.6176205 100.9009552  15.7098627
  54.2644119  26.4033747  36.7876291  54.3785095  26.5449810  37.7273965
  53.3326864  26.5592670  36.6333055  50.0375366  24.5694852  11.6545367
  50.1849174  24.4680738  10.7142043  49.7860146  25.4870105  11.7599714
  84.9582767  25.8299279  24.2414761  84.6520615  25.5696249  25.1102138
  84.2173195  25.6505561  23.6626506 109.4638634  57.1075058  74.4346714
 109.0205002  57.2048807  73.5919523 109.3513870  56.1838245  74.6591616
  40.3743601  12.4191594   0.7342815  41.1782646  12.8832352   0.9679598
  39.7326326  12.7106869   1.3819122  89.7325802  12.9609835  14.0316129
  89.4940376  13.4432769  14.8232698  89.4631767  12.0599222  14.2097843
  60.9874821  78.9526987  67.2757626  61.6991520  78.5167885  66.8069935
  60.2144241  78.4213448  67.0853090  96.3734722  13.5349929  12.7077854
  96.9011307  14.1223526  13.2489157  95.8984375  14.1174686  12.1150887
  98.4415531  92.6662922  28.8511395  98.1200981  92.2955608  29.6730042
  97.6502132  92.9302979  28.3817649 110.8260536  83.5326672  76.9539261
 111.0144997  84.3019104  77.4915028 110.0503922  83.1428432  77.3571825
  87.2250557  29.5922685  24.9112248  86.2741089  29.6208215  24.8058009
  87.4847221  28.7591171  24.5179534 107.7379894 104.3159485  85.2796745
 108.0965614 103.9249039  86.0763836 107.4977207 103.5679150  84.7329044
  87.6341248  43.8136053   5.9214425  87.2662354  44.6707153   5.7063860
  87.5256920  43.2989216   5.1217091  15.0975966  13.4301269  25.4313564
  15.2226245  13.6416662  26.3564801  14.2612576  12.9654169  25.4028296
 106.4827538  55.4824495  70.7798576 106.6476154  56.4220858  70.8581734
 107.2989655  55.1243401  70.4308891  89.2391708  16.8614595   0.1374039
  89.9081793  17.4676816   0.4554447  88.4505072  17.0973604   0.6258568
   1.2930246  82.4350929  66.8955326   1.9205029  83.1280804  67.1011400
   1.7863454  81.8178749  66.3552475  79.6154118  33.9179087   5.9615755
  79.2945099  33.7173128   6.8407881  79.0484333  34.6257281   5.6553710
  60.9935427  86.3262939  28.5127592  61.6511250  85.8607769  29.0295887
  60.6055880  85.6518173  27.9552627  95.7865715  60.8563280   9.3697482
  96.6326046  61.0840082   9.7552663  95.5671978  60.0088882   9.7569877
  99.2152119  42.2776985   6.0892344  98.2945442  42.1365643   5.8685851
  99.2293835  42.3144674   7.0456231  97.1630859  50.0697327   7.0973724
  97.1910000  50.6827688   6.3627696  96.5511894  49.3887615   6.8179262
  79.8020411  56.4312220   2.3113525  80.0397778  57.2348881   1.8489330
  79.0957499  56.0533667   1.7873219  21.5011024  62.3635864  74.1035271
  20.8890891  62.9310751  74.5721769  22.3663712  62.6989269  74.3382311
 110.5381012  42.9198885  27.9695272 111.1060429  43.1814957  28.6942554
 109.7009659  42.7117109  28.3843708  77.2131062  16.0296953  89.6841621
  77.3980713  16.5509987  90.4653549  76.9193459  15.1845372  90.0242329
 101.4027596  37.8519487  20.2079535 101.8214226  38.6134720  19.8066592
 102.0905304  37.1867442  20.2344632  98.3820820  39.9392152  17.0750570
  97.8072739  40.6121063  16.7103100  99.2182064  40.0703907  16.6279399
 107.0240593  99.3193054  45.5669641 107.4380779  98.6702347  46.1357546
 106.9818115 100.1129913  46.1003590  77.0013380   7.4611032   1.6679275
  76.1172628   7.6480794   1.9836563  77.5026846   7.2678173   2.4600902
  69.9246597  53.0107880   6.9078243  70.0887680  52.6574087   6.0335124
  70.7052135  52.7780581   7.4106193  19.7987902  71.9702768  61.5220499
  19.0807652  71.6768265  60.9611940  19.4906008  71.8032646  62.4127579
  62.4419355  25.0893879   8.1703281  61.8331575  24.5371604   8.6609089
  63.1908417  25.1994276   8.7562114  42.1443272  93.1034184  19.2317712
  42.1583223  93.0551243  20.1876497  42.6972246  92.3757553  18.9470720
 107.0621490  91.0361099  90.0718594 106.2356758  90.7983971  89.6515274
 106.8033123  91.5604115  90.8297157  65.0115252  42.5841379   6.8246329
  64.3815613  42.5524807   6.1046493  65.1183987  41.6706085   7.0897162
  16.7331219 103.2811546  76.5537262  17.0241964 104.1452217  76.2623787
  17.5230598 102.7411652  76.5283394  94.9845314  34.2965603  37.2398090
  94.2581367  34.3188024  36.6168404  94.6193886  34.6599674  38.0465555
  86.7151451  15.8318949  33.8015747  86.3624287  16.5553999  33.2835340
  86.0713577  15.6994236  34.4974375  30.2082276  91.3912296  76.1897421
  30.7900095  90.6367397  76.2820292  30.6502271  92.0941639  76.6659212
  71.6462326  43.0183935  25.6796288  72.2798967  43.5997534  25.2592444
  71.8083429  43.1251240  26.6169453   1.2603056  54.9829149  26.9352126
   1.9432367  55.0922155  26.2734795   1.5842946  55.4654646  27.6957417
   9.3787646  97.5737190  74.6973658   8.5852510  97.9734802  74.3413305
   9.2143339  96.6319275  74.6503162  69.8142624  20.6662011  24.2205000
  69.4970608  20.7775760  23.3242798  69.8925257  21.5579605  24.5594287
  60.7951689   8.8098782  13.6340010  60.5971336   8.9335734  12.7057159
  60.9346008   7.8673315  13.7256312  73.0030918  25.0239730  27.3817658
  72.3323011  24.8257732  28.0352068  72.8258610  25.9284163  27.1233058
  29.4024658  49.5759344  81.1589527  29.6835470  50.0942659  80.4049301
  29.1449523  48.7323427  80.7871151  35.4370117  81.5554810  86.4219761
  36.2211800  81.5631771  86.9708443  35.7587171  81.7510033  85.5419159
  71.9983196  35.2964306  33.1549883  72.3526955  34.4932389  33.5364771
  71.8282795  35.0722885  32.2400689  53.1899118  59.1380119  11.0662365
  52.3153448  59.2953968  10.7104349  53.7224960  58.9149475  10.3028083
  40.7863951  22.1545672   7.5829929  39.8644972  21.9242668   7.6983082
  40.8963299  22.9616928   8.0856818  97.9732800  22.0887327  26.0766292
  97.7207565  22.9899383  26.2773561  97.5323868  21.8950534  25.2493811
  55.6365824   8.6546195  89.2527771  55.2576160   8.2062787  90.0088310
  55.9379482   9.4946826  89.5987606  74.3097973  27.0892954  78.5553980
  74.6019793  26.1807775  78.6292696  74.2044830  27.3813868  79.4608402
  57.4864054   5.4036742  88.6478138  58.3982611   5.6895703  88.7026787
  57.1628666   5.4611421  89.5468426  21.6582108  75.5799818  69.2922688
  20.8171487  75.4691887  68.8489008  21.9144225  76.4815712  69.0980244
  73.0505228  78.9788818  84.9253178  73.7135315  78.8125849  85.5953884
  72.4778032  79.6400881  85.3139591   0.5755993  67.4474144  87.2632599
   1.4947453  67.5508785  87.0168877   0.4750043  66.5092802  87.4245548
  72.2300386   8.5349119  37.8345346  72.3912096   8.0088294  37.0512772
  71.2883663   8.4555161  37.9867983  30.6318665  60.1179457  85.2228832
  29.7708797  59.9794817  84.8282146  30.6471467  59.5287943  85.9771347
 111.3432598  88.4360981  85.2333450 110.5063248  88.8371658  85.4676914
 111.8971920  89.1722202  84.9735165  74.6833467  39.0617895  11.6455305
  74.1085577  39.8199463  11.5404272  74.1809464  38.4536767  12.1877694
  97.6133633  34.0899158   4.4113088  97.5903225  33.3019114   3.8683993
  96.7088890  34.4031572   4.4173196  73.2443857  37.8526068  14.1875303
  72.3645449  37.7077579  14.5355642  73.7655306  37.1349764  14.5475984
   2.9446268  90.3931522  86.6798115   3.0382165  89.5271111  86.2830257
   3.6791974  90.8974743  86.3301086  81.6490459  37.7866578   6.4247733
  81.0535717  38.4245467   6.0314047  81.7416286  37.1039152   5.7603002
  95.0737095  92.9977512  85.2197552  95.8419418  93.5182953  84.9850464
  94.7652435  93.3824825  86.0401535  12.1862650 102.1823311  74.2959833
  11.5531445 102.8289890  74.6077919  11.7204821 101.3476086  74.3460941
   4.7269404  89.7156620  82.1850491   5.6656277  89.6308517  82.3521042
   4.3355030  88.9644718  82.6308250  77.3768902   2.6888636   4.5793885
  76.8341303   3.3999035   4.9200746  78.2451439   3.0784708   4.4765496
  83.8702011  23.4341407   8.8670635  83.9014816  22.6378870   9.3973762
  84.5567894  23.3123112   8.2113278  77.3568916  36.2892795  29.7434115
  76.6793728  36.9444108  29.9107432  77.7409029  36.1168933  30.6030917
  99.7609806  58.1330013  11.2705421  99.7887897  57.5964355  12.0627260
 100.6558704  58.4573030  11.1693788  70.3892565  26.7155886  14.3609571
  69.8793840  26.1515689  14.9424589  71.3010263  26.5006495  14.5576835
  38.5695863  15.1095927  30.4925203  38.3523536  15.7735395  31.1469030
  37.7633381  14.6045709  30.3869319  66.5756893  35.2667856  31.1547422
  67.1925735  34.5482874  31.0152912  65.8697939  34.8793578  31.6722822
  52.3142672  23.8055754  33.6135030  52.6004744  24.1658330  32.7741408
  53.0530357  23.9562273  34.2032099  50.5106211  15.0018680  20.5366135
  50.9799910  15.6969023  20.0752568  50.3508282  15.3596318  21.4099431
   2.2128297   5.7480693   4.2719337   2.9627949   5.6949311   3.6795145
   2.0115349   4.8370439   4.4858149  87.8421974  38.1100845  13.2507479
  88.6100292  37.8263664  13.7468934  87.7110767  39.0213609  13.5126984
  90.0377750  21.3725781  37.4830270  89.8966503  22.3160815  37.4048138
  90.9878922  21.2675738  37.4331689  95.9776497  25.2170992  23.1380296
  96.3686180  25.8405948  23.7501001  95.0378799  25.3927994  23.1847715
  93.6930466  22.2036552  26.2482142  94.0400314  21.5942097  26.8996787
  93.6598110  21.6949224  25.4380798  63.6051750  22.6976800  39.1511512
  63.4853601  22.3363423  38.2729077  63.9853191  23.5637474  39.0040040
 105.1985073  79.0010023  38.3171988 105.5768776  78.1412745  38.5014105
 105.1024246  79.4096947  39.1774106  60.0455189  23.4259939   4.0387148
  60.0747347  23.3144617   3.0884838  59.4530201  24.1653204   4.1749877
 100.1612759  31.8667150   4.3027464  99.6684074  32.2835541   5.0095415
  99.6273518  32.0103049   3.5213768  75.4601240  90.6840324  89.7330761
  74.5649624  90.9098053  89.4802094  75.8574152  90.3452396  88.9308262
  63.8500206 105.9978972  54.4563341  64.4892304 105.6408912  55.0729322
  64.3787758 106.3509685  53.7408018  14.5962656  73.4512901  80.9938240
  14.6788013  72.5308752  81.2433434  15.4514730  73.8314867  81.1945724
  97.5430393  48.8254261   2.8247797  96.7106915  49.1109896   2.4481092
  97.9925823  49.6381855   3.0562285  16.4125347  83.9981937  90.7827854
  15.5060899  83.8979816  91.0735607  16.4056766  83.7045860  89.8717594
   8.9864367  39.0982985  13.8980436   8.9283383  38.1440306  13.9452600
   9.8723859  39.2687845  13.5782623  62.5562143  36.4821696   4.4773170
  62.7982283  36.6614008   5.3859085  61.8647528  37.1152902   4.2842776
  30.0714970  22.8183103   5.3998941  29.6495533  23.6744380   5.3275084
  30.5383229  22.8511977   6.2348944  96.2743664  19.9782288   9.2912638
  96.5042019  20.5104065  10.0529695  95.3402424  20.1400304   9.1590935
  83.3080578  40.0599575   6.3690591  82.9151058  40.6884575   6.9747078
  82.7703953  39.2730689   6.4582670  38.9149737  34.4018412  10.3227329
  38.5992885  33.5077929  10.1913917  39.3547726  34.6235561   9.5019698
  79.5933485  78.7104654  60.8399487  80.4084778  78.3623743  60.4785252
  79.1351366  79.0798664  60.0850868 108.7961483  19.8905683  10.0902200
 108.6441517  19.3412566  10.8592355 109.7253799  19.7738516   9.8923898
  74.3425179   5.4131722   0.7164421  73.9228058   5.5939698   1.5575045
  73.8295889   5.9120739   0.0806476 100.3547192  40.2140093  30.2154255
 101.0684299  40.0619316  30.8348799  99.7132778  39.5327544  30.4171157
 102.8231525  49.2151070   5.8001280 101.9409180  49.5805407   5.7341546
 103.2763004  49.7926474   6.4144015  89.5518398  27.4186063  18.8402236
  89.0663147  28.2410026  18.7756777  89.0142441  26.8670607  19.4085741
  99.6973133  13.4567058  21.4346576 100.5948734  13.1267750  21.4766669
  99.3617725  13.1323516  20.5989337  66.3430548  10.8627045  46.2874556
  66.9673967  11.1828351  46.9385672  66.7650986  10.0908518  45.9101534
   8.2021719  54.8182821   9.0431565   9.0512180  54.5663738   9.4063300
   8.4176368  55.3558111   8.2810068  42.2457361  20.9777188  15.1534462
  41.3430977  21.2833500  15.2432859  42.7670336  21.6293383  15.6223524
  81.8890858  10.9589124   6.1705458  82.2041798  10.7407784   7.0476830
  81.2213516  11.6291916   6.3157320  95.0821304   6.5280062   4.8046306
  95.7985592   5.9710419   4.5000815  94.2884827   6.0470468   4.5700186
  58.9702606  28.4906483  46.3117981  59.1525078  29.3339181  46.7264271
  59.1168165  27.8465104  47.0045042  53.0302477  67.7204227  19.8623729
  53.3635998  67.4166298  19.0180886  53.7590313  67.5891638  20.4689002
  72.0726728  23.4797502  30.1854849  72.0715475  23.6043167  31.1345458
  71.1762381  23.6804771  29.9165106  67.3053265  29.4850993  39.7312593
  67.9060268  30.2170467  39.8714232  67.3595285  28.9728951  40.5380678
  83.5258007  35.2205324   3.8193104  84.0534401  35.7345986   3.2081074
  84.1381741  34.5834398   4.1872093  78.7216425   6.5945923  12.9353535
  78.1034708   7.2922093  12.7175772  78.7076187   6.0156220  12.1732318
  23.0874443  95.4598999  91.4177608  23.8178182  94.8415565  91.4388084
  23.4948349  96.3162899  91.5476131 100.2181053  49.9452734   5.9751731
  99.9746895  50.6027985   5.3235275  99.4578266  49.8887873   6.5539885
  69.1938210  37.1681261  11.1820376  68.9302921  36.6138077  11.9165540
  70.0181150  37.5642657  11.4646077  82.6164341  83.4307003  19.7475815
  82.6430511  84.3010521  19.3500817  82.4082184  82.8422356  19.0219176
   5.5294585  52.1747780  80.2520561   5.8005446  52.3644352  79.3538523
   4.5758209  52.1069050  80.2051544  97.7043629  56.4600754  14.6056247
  97.0232391  56.4599323  13.9330912  97.2354221  56.6355705  15.4214191
  94.9867535  27.5800610   6.9686598  95.2002907  26.9687676   7.6736116
  95.2495766  28.4363008   7.3063147 107.5815582  28.8599992  11.4845705
 107.7693272  29.7350669  11.8240225 108.0628300  28.8152313  10.6583726
  95.3856373  72.0917654   7.5983524  96.0209179  71.9955349   8.3078474
  95.5334282  72.9759598   7.2628081  20.7603478  90.3212547  63.7964916
  20.0425339  90.9476852  63.8890505  20.3404617  89.5205879  63.4820604
  12.4231756  68.6700106  78.6187696  12.0767975  67.8170776  78.8809872
  11.8755174  69.3036795  79.0822029  27.5414181  86.2807274  88.2235050
  26.5973639  86.1324883  88.2784367  27.9097033  85.7411575  88.9231110
 110.1653862  32.5338292  20.4637122 109.7163868  31.6893339  20.5018759
 109.5079136  33.1678176  20.7501006  92.0164967  50.5508614  11.1834514
  92.0423985  49.7520971  10.6566334  91.1520195  50.9237862  11.0107088
  13.0502641  42.9574251  25.7155108  12.1873951  42.7558613  25.3534865
  12.9847789  43.8700294  25.9967566 100.5963802   7.2070080  89.5595741
  99.7921944   7.1263236  89.0467453 100.7755947   8.1471074  89.5776939
  81.7938900  32.2235990   6.4110345  81.2804222  33.0238295   6.3004988
  82.2514629  32.3456073   7.2428840  93.7148380  41.8843651   9.1133440
  94.4232750  41.4144039   9.5532000  93.4554958  41.3082504   8.3942717
  19.6595383  55.9310198  83.8676643  19.5869100  56.5074968  84.6283436
  19.9052000  56.5131092  83.1486034  58.6671431 103.9257668   0.1552376
  58.1485493 104.0515135   0.9498867  58.7303527 104.7996090  -0.2302948
  86.4486122  23.6795259  30.3734422  86.6455746  24.0408778  29.5092297
  87.1813965  23.9586067  30.9224224  25.8154154  20.0065303  66.6369820
  26.7682266  19.9150991  66.6416264  25.5133605  19.3351901  66.0251856
  79.6124840  52.9750490  11.6605008  79.5449543  53.2344627  10.7416022
  79.6741152  52.0201492  11.6358852  96.4513969  63.5599852  26.9127083
  97.0031261  63.2317972  26.2026930  97.0706558  63.8678789  27.5744891
  96.2977791  44.7236013  17.2697973  96.9459534  45.3645515  17.5618219
  96.5356350  44.5393801  16.3611066  14.0969527  91.8535995  81.9956684
  14.7493386  91.8986797  81.2966728  13.2663751  92.0469189  81.5609264
  60.1816082  86.4139462  83.8899231  60.2772951  85.5453873  83.4991741
  60.4215336  87.0197773  83.1887531  51.7067003   5.5029970  84.2832279
  51.7720079   6.1756188  84.9611282  52.4784040   4.9526542  84.4167519
  81.0087395  13.5867977  18.0950856  81.1671257  12.9413688  18.7839746
  80.2037525  14.0301657  18.3627605  72.7766085  20.9621024  27.1501708
  72.8736401  21.6980028  27.7545452  71.9612980  20.5381131  27.4179983
  94.5014381  78.8509703  14.1605484  95.0018883  79.6626568  14.2439008
  94.9279022  78.2435083  14.7649908  98.5647678  46.0504961  10.9352732
  98.8974571  46.0527849  10.0377512  98.2678127  46.9484091  11.0829294
  97.8057098  28.6037731  35.8899832  98.6343002  28.2655978  35.5504155
  97.5837421  28.0141997  36.6106510  99.8601818  49.5588064  40.5700159
  99.5607471  50.3184223  40.0704622 100.8022118  49.6950006  40.6713772
 111.2296867  36.2861061  25.7717156 111.9458675  36.6903710  26.2614989
 111.2375546  35.3698111  26.0484385  82.5281143  67.4715662  37.8963923
  81.5739441  67.4853516  37.9711962  82.7229595  66.6366482  37.4707460
  58.6222458  13.7881255  76.7145634  57.7669621  13.5931218  77.0975685
  58.5939884  14.7271276  76.5309620  43.6673832  12.1058965  80.8003521
  43.1596088  12.0644617  79.9899960  44.4344664  12.6325285  80.5756855
  88.9565182  95.1377964  82.2846794  89.7300625  95.2157974  82.8430653
  88.2867813  95.6573868  82.7293301  54.7633171  38.5238242  26.7864919
  53.8712597  38.3294773  26.4989376  55.2950954  38.4323978  25.9958673
  73.7062836  17.4161625  88.0797386  73.2326269  17.7470541  87.3165894
  74.4879246  17.0011055  87.7150536  91.6717911  47.6446724  16.6898978
  91.7041302  47.7526617  17.6404369  90.9679222  47.0124960  16.5444696
  79.7997904  43.4482527  17.1974528  80.4814053  43.7725353  16.6088331
  79.2552757  42.8858757  16.6465735 100.9215736  29.0094042  21.5736461
 101.3810921  28.5592937  22.2825050 100.0370312  29.1485095  21.9119549
  49.1568613  46.5047455  28.7464356  50.0467014  46.4720488  29.0976429
  48.6204720  46.0750389  29.4126749  78.3152628  47.9944992   7.7656555
  78.7405825  47.2186184   8.1308198  77.5412703  48.1236887   8.3138168
  19.0968394  52.0678282  31.0761881  19.9749529  52.3551798  31.3263488
  18.5273981  52.4103689  31.7651248  94.3345451  43.9794588  63.6252213
  94.4929886  43.1357384  63.2018328  93.4591484  43.8969707  64.0035105
  82.1940136  25.4452729   2.8452799  81.7789364  24.9675250   3.5634017
  81.4801311  25.9392262   2.4420176 104.6202183  49.5060921  19.8222733
 105.4500675  49.8008251  19.4471598 104.8743916  48.9473915  20.5567670
  22.4865198  85.1938534  77.7619457  23.3459687  85.3794479  78.1402731
  22.0520735  84.6429920  78.4131289  38.1813002  92.3814774  69.6990395
  38.4727001  91.4900589  69.5075226  38.9890504  92.8662968  69.8685265
  32.0742989  96.1405087  91.4502621  31.1246514  96.0382462  91.5130424
  32.2659469  96.9214344  91.9695568  94.7606468  65.6414366  27.2806311
  95.4092026  64.9374485  27.2766924  95.2365303  66.4073038  26.9593573
 110.9315681  70.6851530  83.0595398 110.1783752  71.2722015  83.1251144
 111.6844940  71.2700987  82.9748058  69.8248863  59.8039818   6.6567510
  70.3952360  60.0583744   5.9313428  68.9975357  59.5654392   6.2386388
  91.2732506  61.9333458  38.2420945  91.0157967  62.8474140  38.1219649
  90.4496574  61.4709616  38.3974028  42.8141022  57.0914268  89.8881626
  42.6988459  56.1951590  89.5724869  42.1014690  57.5827789  89.4795513
 106.8326283  93.2926846  87.7687836 107.1914768  92.9482841  88.5866165
 106.7341423  94.2315578  87.9270363  54.0666723  46.5083599   3.7191868
  53.9231205  46.3331890   4.6492082  54.4051266  47.4033594   3.6934918
  94.5320892  37.7257085   6.6008633  95.4697990  37.9172826   6.6164953
  94.1194534  38.5213232   6.9369578   4.6771994  96.8705845  35.5127740
   5.4776466  97.2079182  35.1106310   4.3673769  96.2001896  34.9038243
 101.6451263  65.7283783   0.7830434 101.9702721  66.5200949   0.3544503
 102.1417999  65.6769133   1.5996820 103.0371380  72.2629213   5.8125830
 103.2216835  72.4291325   4.8881647 102.4175167  71.5333652   5.8057183
  91.1764486  -0.0093966  25.0062370  90.3306301   0.2680844  25.3581381
  91.8213756   0.4656572  25.5302858  79.0110254  82.9402065  72.9506683
  79.8700666  82.7395535  73.3221769  79.1558075  82.9508495  72.0045376
   5.6594712  81.6914940  64.4225216   6.3758719  82.2802258  64.1850376
   4.8845866  82.0819950  64.0184259  75.1122046  15.8432353   8.7036031
  74.3848419  15.9376872   8.0885810  75.1353550  16.6750073   9.1767311
  96.6717720  29.4847727  40.5553675  96.3999271  29.1950727  41.4262342
  96.0005188  29.1384768  39.9673796  83.8821316  15.1125181  35.0188851
  83.8285828  14.4124269  34.3683171  83.4146118  14.7684765  35.7799983
 110.3929329  63.0796909  26.4193702 110.8557034  62.9438114  25.5925632
 109.7537327  63.7655020  26.2261796  70.4825401  62.6074266  39.2715502
  71.2735891  62.1386862  39.0055680  70.5494308  63.4568787  38.8354397
   0.7106764  82.4249363  81.4806461  -0.0317400  82.3893452  80.8774948
   1.1358721  83.2606125  81.2880707   8.5476547  34.7138929  13.6621797
   8.1958342  34.0436554  14.2480421   9.3591362  34.9978447  14.0830135
  59.7028160  15.3694177   1.8472497  59.2751265  14.5357227   2.0428622
  59.1597176  15.7627618   1.1642030  17.6385224  88.7072849  80.0805378
  17.9998994  89.1658592  80.8390522  16.8609619  88.2623768  80.4177094
  93.8285160  34.5463014  27.8120780  93.6772346  34.8271537  26.9095993
  94.4921684  35.1514244  28.1431770  23.5077119  11.8779337  58.5163498
  23.1043267  12.2837222  57.7489853  24.2639351  12.4317288  58.7104368
   5.1009512 100.6713104  83.7700939   6.0231763 100.6159592  83.5197544
   4.7713050  99.7783756  83.6689186  73.7199402   4.4406980  18.0167091
  73.6744547   5.3552693  17.7379215  74.2273808   4.4625750  18.8280392
  93.8794804  60.5469275  13.1728554  94.0738392  61.4840841  13.1591344
  94.4599915  60.1917553  13.8459778  87.8601797  75.7915209   0.8531365
  88.5512026  76.2207697   0.3487000  87.5219686  75.1139281   0.2677235
  95.3418255  52.1948767  34.5444369  94.8519802  51.3918924  34.7219014
  94.6684456  52.8537703  34.3751884  16.2820852  75.8216190  70.4224157
  16.0277390  76.4745235  71.0745335  16.4812160  75.0373268  70.9337521
  14.5338440  55.2141333   2.0163533  14.1468894  56.0728359   1.8456668
  14.6765935  54.8387671   1.1474733  84.9807072  59.6483850  11.7276382
  84.2233658  59.5021009  12.2944546  84.8044968  59.1176653  10.9507716
  66.4559841  50.7304907   6.4908206  66.8424559  50.9835577   5.6524730
  66.5798521  49.7823763   6.5351892  74.8676062  43.2722902  26.9092703
  75.8151770  43.3522511  26.7999864  74.7261143  42.3454523  27.1021104
  69.2143059   2.2369160  72.1338081  69.8657179   1.8988948  71.5192842
  69.2362022   3.1855944  72.0082617  76.0080767  37.9445839  21.5595174
  76.7186689  37.6043844  22.1031642  76.3005877  38.8190603  21.3026929
 100.5989456  69.2921925  31.7760730 101.3298035  69.7970724  32.1327019
 100.4450893  69.6718979  30.9109783  11.8114710 105.1802444  71.1010981
  12.4410927 104.6329403  71.5704155  12.1530235 105.2263069  70.2080965
  11.5995479  98.0412674  59.1044092  10.9896886  98.3242416  58.4230661
  11.0399210  97.8097820  59.8456669  72.3987293  25.3214407  87.8944016
  72.7529192  24.4413567  88.0218220  73.0527639  25.7672238  87.3561192
 108.1727123  57.1579218  54.0065145 107.8797150  57.4518156  53.1439543
 108.6129856  56.3246870  53.8388443  92.7675438  38.4359336  19.1289508
  92.0077991  38.0550933  19.5693803  92.9776192  37.8136110  18.4326637
  75.5385399   1.0610376  28.0054736  76.1937046   0.5708455  28.5021639
  74.7314405   0.9616069  28.5103846  96.5353012  39.5651126  13.1657028
  96.6892624  38.6212754  13.1245387  95.8929729  39.7333050  12.4762392
  56.2774420  22.8089833   4.8045847  56.8861628  22.0797563   4.9225765
  55.4722309  22.3999214   4.4875103 100.3884220  34.9009013  18.1624031
 100.9048271  34.0964150  18.2109869 100.0526237  35.0239444  19.0502822
  95.9117794  10.5111229  29.3384290  96.1781979  11.4273143  29.2619753
  94.9784088  10.5497253  29.5471597  99.6777725  95.9554672  22.0596790
  99.9728394  96.5290451  21.3524508  98.7709045  96.2176132  22.2180939
 103.3320427  62.8006077  31.2137628 103.4091949  61.9854021  31.7094636
 104.1871738  62.9098272  30.7977724  49.8760223  93.7969685  80.9081841
  49.7857141  92.9363060  80.4991245  50.7279062  93.7669945  81.3436413
  81.2909412  47.4703598   1.8194225  80.9685421  46.8009377   2.4228832
  82.2422314  47.3647833   1.8306172  99.9783134  54.4982910  15.2759063
 100.1221466  53.7176466  15.8108258 100.7538891  55.0385189  15.4271710
  64.3421412  26.2477231  14.7803283  63.7536383  26.5090942  15.4885530
  64.4418907  25.3019071  14.8885572  99.8987007  51.9550800  39.2244554
  99.4683743  52.8035879  39.1192055 100.8341122  52.1577883  39.2123556
  12.2255135  95.0294876  83.6018753  11.2745380  95.0565815  83.7074375
  12.3791206  95.3791714  82.7241707  11.3733006   6.5269917   5.3350180
  11.1476004   6.9775975   6.1488020  10.9207118   5.6855905   5.3936696
  84.8515701  49.3309784  17.1507943  84.2584991  49.2683887  16.4020741
  85.6137276  49.8019886  16.8139064  82.3637772  90.0893402  15.8555841
  82.4972916  89.7334862  14.9770808  81.4175987  90.2189827  15.9202325
  89.2770576  52.6780987  15.6843162  89.9721718  52.0211077  15.7219350
  88.8199520  52.5913239  16.5208316  63.6656046   2.0984113  77.9880285
  63.5176659   1.1677834  77.8198671  63.7001562   2.1668626  78.9421511
  82.4319935  99.2568874  18.9812565  82.5415039  99.0759945  19.9148059
  82.7450275 100.1549530  18.8729799  65.5852318  85.2559280  85.7125664
  66.3541889  85.4879379  86.2332439  65.0876331  86.0707569  85.6440449
  91.8940735  48.9012480   3.7958995  92.1522713  48.1089211   4.2668357
  92.5304317  49.5613432   4.0707633  11.1097622  65.4454422  83.9340782
  11.1467576  65.5237722  84.8873520  11.1236084  64.5024204  83.7705326
  93.5716438 102.5929928  68.5705900  92.8536510 102.5775719  69.2034245
  93.1983280 103.0116558  67.7949667  78.6105490  31.5364718   0.0684085
  78.4273005  32.3000407   0.6157796  79.5645142  31.4584041   0.0778385
  99.7284985  64.1757679  26.1106205  99.2744350  63.3769989  25.8422375
  99.9273586  64.0385389  27.0368242  72.4524641  51.7953730  18.1493723
  72.1518135  52.6020432  17.7308941  71.7179251  51.5226269  18.6991811
  71.1923695  28.0302596   1.2037173  71.8949223  28.2713270   0.5999452
  71.6353846  27.8794718   2.0387217  17.2049427  72.3077106  24.1420054
  17.3976505  72.9102278  24.8603845  18.0642998  72.0222473  23.8317657
   0.3833769  72.4473333   3.9870030   1.0614372  72.9887962   3.5829175
  -0.4367582  72.7764797   3.6192060  67.7467012  54.2210531  35.0772047
  67.7460957  54.7831440  34.3024278  68.6140347  54.3453217  35.4625916
   4.9630004  31.9761014  24.1192865   4.4529003  31.7507982  24.8972774
   5.6510615  32.5569582  24.4439530 110.2671623  29.6100068   7.0883888
 109.7746658  29.8783255   6.3127065 110.9765625  30.2492261   7.1546543
  86.7439842  89.0970612  82.6952744  85.9562111  88.7121964  83.0793571
  86.5262413  89.2158127  81.7707634  87.0652580  69.6743441  26.1893916
  86.1243343  69.7490072  26.0302615  87.1564007  69.7723389  27.1371913
  34.5368385  28.6267686  86.7809963  34.3987513  27.6820183  86.7130947
  33.6719513  29.0069127  86.6270828  90.7965088  27.6302719  23.7339520
  91.6675568  27.5363326  24.1195416  90.2410984  27.0478725  24.2521787
   5.3946203  60.7973909  20.1151180   5.2532202  61.6395140  20.5476213
   6.0613143  60.9774971  19.4523132   9.3562937  94.9556828  83.7036991
   9.1586691  95.8494949  83.4239006   8.5713673  94.4556046  83.4799957
  54.4285059  61.5359592  88.4996223  54.3681622  60.7826471  87.9121590
  53.5309982  61.8625402  88.5632896  83.3228779  48.9485550  12.6493573
  83.0550480  48.0961323  12.9926765  83.5261631  49.4671583  13.4277940
   2.8532153  68.8662195  39.5038795   3.3858001  68.0880833  39.6684504
   1.9509141  68.5472727  39.5227408  91.5115166  23.4414196   1.4747556
  92.3796272  23.5180140   1.8706848  91.0888577  22.7325130   1.9595669
  66.0186958  42.8612614  37.2515798  66.7291737  42.5337410  36.7000508
  65.6441927  43.5877562  36.7534018   1.7366613  98.9791203  75.3009081
   1.4600733  99.8625374  75.0573969   1.4749277  98.8902664  76.2173319
   1.5939625  73.7167740   6.3783586   1.0863698  73.1792402   5.7703793
   2.2130597  74.1886711   5.8213484   4.3003124  87.8715134  11.2587321
   5.1056534  87.6585865  10.7872272   3.6444530  87.2781277  10.8927190
 101.2182045  76.0189342  49.7491789 101.7298126  76.7806530  50.0216913
 101.2313366  76.0513544  48.7926197  22.7319169  13.6485994  77.2389317
  23.4621978  13.1130552  76.9289160  22.7909017  14.4543171  76.7255402
  27.8419757  87.4737930  58.4547615  27.7214718  88.2436371  59.0106821
  28.2667351  86.8317223  59.0235806 105.2699947  42.0352840  13.3303773
 105.6167603  41.1541605  13.4703708 104.9627781  42.0305395  12.4238300
  16.7546082  28.4178352  24.3538213  16.6776812  27.8320718  23.6006951
  15.9358990  28.9137602  24.3561387 112.3882675  17.4939930  82.9975224
 112.0259762  18.0201435  82.2846889 111.8008137  16.7410088  83.0619240
  11.1185229  50.1736450   2.1434483  11.2412763  49.5537949   1.4244565
  11.2849426  49.6598101   2.9337078 110.3036976  54.6681881  11.1058998
 109.9017239  53.8003206  11.1440563 111.0970974  54.5881462  11.6353786
  19.3120098  32.9242492  13.4349418  19.5188642  33.7005448  12.9145503
  18.4705305  32.6232934  13.0920577  11.5212691  66.1176968  18.2591605
  11.1063337  66.9395971  17.9973650  12.3397148  66.3851404  18.6773157
  52.6503420  83.0649376  31.1619616  51.8610382  82.6276875  31.4814043
  53.3527374  82.4328136  31.3145685  13.0472302  78.5241652   9.7557753
  12.5283086  77.8326988   9.3448949  12.4997711  79.3064737   9.6886194
  74.5113277  33.0474544  13.4648979  74.9306679  33.7542939  13.9555728
  73.5837507  33.1165433  13.6908579   3.1894171  33.2502794  15.4230535
   4.0487444  32.8289294  15.4071689   2.7335641  32.8370500  16.1563146
   6.5526140  76.2097740  14.6836472   5.9415108  76.4137983  13.9757216
   6.0801840  76.4434719  15.4826641 102.3629189  38.9962149  37.2626400
 102.6071167  38.0880523  37.4410653 102.5409031  39.1131735  36.3294339
  66.7259789  85.5514050  70.9837866  67.5876570  85.5162621  71.3991213
  66.1439133  85.1095295  71.6019964   3.1261241  57.5016737  17.0663452
   2.2281182  57.8293848  17.0171440   3.0570966  56.6878986  17.5655818
  90.8279514  47.9307747  10.4763222  90.7341576  47.6604319   9.5628941
  89.9487591  48.2059956  10.7361364 101.3002872  26.5761614  28.9616704
 101.6304207  27.4665570  28.8415122 100.6541634  26.4641476  28.2643795
  74.2954111  72.5757217  28.4174490  73.8382483  73.4027958  28.5697055
  75.0674105  72.8192854  27.9066396 112.2915554  50.8431673   5.6185913
 111.9008541  51.3644266   6.3199288 112.7200317  51.4855671   5.0529444
  92.5248909  76.8030167  37.1132588  91.7080307  76.3468266  37.3154259
  92.3293877  77.3050022  36.3220453  94.2736721  73.5466480  44.7423792
  94.8057079  73.1059217  45.4048920  94.1155243  72.8764629  44.0774965
  91.7527103  75.4529285  12.2195923  91.9904137  74.6464634  12.6771331
  91.2937927  75.1561117  11.4337659  17.9778910  66.1600924  22.5418139
  18.2285321  66.2597227  21.6233993  17.6641262  67.0268154  22.7998328
  97.1335220  46.0704660  25.2372622  96.3636494  45.5255365  25.0742078
  96.7756367  46.9139433  25.5141926  30.1799965 105.2201271  81.5014076
  29.4013715 104.8879051  81.9481850  30.9053564 104.7288990  81.8871212
  26.7260695  99.5715809  87.9496193  26.6373682  99.1100407  88.7834835
  27.6593733  99.7744560  87.8862476  90.8921432  76.5523720  87.3436165
  90.8840942  75.7590294  87.8791237  91.8198204  76.7691946  87.2506714
  91.6409969  50.6005335  45.0964546  91.4411449  49.8440981  45.6479025
  92.2551441  51.1197710  45.6155348  29.7830033  75.6985855  71.5260363
  29.3948674  74.8410606  71.3521481  29.3452954  76.0028410  72.3210669
  37.3934126  63.6139631  52.7721596  36.9967842  63.7428045  53.6337423
  38.0885935  62.9732370  52.9219055   0.7911476  69.1538715  60.9529495
   1.4602587  68.7869167  61.5307617   0.0094618  69.2174149  61.5017319
  42.0057011  83.2112217  75.7247734  42.3603296  83.1794739  74.8362541
  42.6371908  83.7366581  76.2160635  93.7371540  61.5310144  28.0865288
  94.1193962  62.0923281  28.7610984  94.0887165  60.6602526  28.2720232
  49.3421316 103.3307362   3.2442531  48.8191509 104.1317558   3.2773066
  49.6459389 103.2057858   4.1433188 102.4681854  62.0011425  58.5202980
 101.6615105  61.7094517  58.9450645 103.1477070  61.4304447  58.8791513
  15.6898844  95.8027172  51.1567163  16.6188633  95.8857346  51.3719797
  15.6772411  95.3095436  50.3364420 103.3921719  79.0773821  68.1488132
 103.7562752  78.9743090  69.0280390 102.5236511  78.6784124  68.2009602
  67.0936871  47.9898500  25.9848595  66.9242716  48.8033009  25.5096507
  66.9258738  48.2085514  26.9015050  75.4289246   1.7269313   8.4486854
  75.9443474   1.0366856   8.8659757  74.6038294   1.7362477   8.9338243
  18.2540977  41.1358070  75.6473255  17.3830974  40.7424068  75.7004690
  18.8439453  40.3942871  75.5114698  36.8450832  54.8798037  34.6362901
  37.0597601  54.0414906  34.2271733  37.5703835  55.4563332  34.3959069
 108.3673477  21.2189317  39.2686963 108.0941868  20.4048824  39.6917081
 109.2083073  21.4293003  39.6746039  66.1497116  10.9830117   3.9108363
  65.4060411  10.3844166   3.8410422  66.8720436  10.5178094   3.4888750
  48.1737947  65.8805037   7.7236301  47.8272343  66.1214304   8.5827488
  48.2402849  64.9260187   7.7512634  83.0205727  21.0501456  62.8228331
  82.4391937  21.2726545  63.5499716  83.0589104  21.8472552  62.2942734
  33.8270068  54.4339228  41.9285297  34.3684244  54.3564701  42.7140856
  33.5304618  53.5409021  41.7530203  90.8592796  90.7373047  74.9490643
  91.3261604  91.3635445  75.5023050  90.4358768  91.2767887  74.2813015
   4.7382486  83.6130905  42.9353142   5.3193140  83.2639790  43.6111212
   3.8665187  83.3097458  43.1888962   9.6798331  60.3369999  89.9841309
   9.8257399  60.1028824  89.0675449   9.7853631  61.2880611  90.0081348
 108.0477238  42.7534676   2.3603231 107.5134182  42.6925278   3.1521749
 107.9394436  43.6582804   2.0673667  21.8815708  58.8206434  59.1605473
  21.2519598  58.3381367  59.6962786  22.7351952  58.5862494  59.5247173
  15.1505375  78.1111431  63.0548906  15.0292230  79.0343809  62.8331852
  15.0024462  78.0702448  63.9996815 110.8640862  56.9213915  58.8352203
 111.6542244  57.2690630  59.2487812 110.9468269  57.1692848  57.9143858
   5.4945654 105.1228237  80.4370785   5.3132772 106.0565662  80.3299141
   4.8747265 104.8338127  81.1067867  48.7865114   8.7231272  83.9226627
  49.3102741   8.7200636  83.1214809  49.4277048   8.8131714  84.6276379
  28.9696145 103.7610531  53.5451794  29.1655540 104.3307209  54.2890310
  28.0492783 103.9340115  53.3469391  72.4058104   9.4689745  90.4216576
  72.9926538  10.1273346  90.0496197  71.6595793   9.9710280  90.7492352
   5.1125908 103.5537338  82.8135681   4.8012942 102.7221298  83.1710052
   5.7911253 103.8385296  83.4257030  47.7200937  88.1137085  81.5789509
  48.0098248  87.2635937  81.2478924  47.0398903  87.9025364  82.2184467
  10.0052595  68.0997467  71.3765860  10.8550966  67.8169012  71.7142344
  10.0468397  69.0558863  71.3938951 104.8395920  77.3993587  76.9339991
 104.4655323  76.5493107  76.7022133 104.1034794  78.0085468  76.8769312
  30.0281858  63.0780649  70.1349640  30.1847935  62.3065519  70.6794596
  30.7158613  63.0454588  69.4699287  88.1117630  36.2339497  22.3337555
  88.1402874  35.4501748  21.7850161  87.1849537  36.4712572  22.3644233
  59.4084454  31.5580463   5.2895159  60.2053833  31.3460302   4.8035437
  59.3466187  32.5121474   5.2436370  16.1410582  85.9331512  87.2652245
  17.0432830  85.7198524  87.0270538  16.1474836  86.8802166  87.4039841
 104.1838455  79.6425009  73.8089132 103.6745644  80.2882004  73.3190775
 103.9569283  78.8037872  73.4072971  13.2666230  85.9658909  86.9225216
  13.0016339  86.7745209  86.4842129  14.1840458  86.1090565  87.1550560
   2.9510468  22.6297665  79.8577642   3.2335094  21.9664884  80.4874516
   2.1395250  22.9792857  80.2258682  17.0447707  84.8541546  78.5212040
  16.4984822  85.6110001  78.3091211  17.8701723  85.2320576  78.8247347
   7.3917019  53.2093906  86.7124271   7.0564425  52.3344851  86.9083118
   8.3420068  53.0997467  86.6787910 105.5765724  57.0965052  85.2634144
 105.4121304  57.5614834  86.0837650 106.3523865  56.5646744  85.4409122
 108.0328465  67.4289322  84.1633987 107.4131584  66.8366241  84.5893002
 108.8113689  67.4014425  84.7196198  22.4298954  60.7225037  65.0557947
  23.1202340  60.8200407  64.3999338  21.8353796  61.4537621  64.8883343
  12.1090376  70.4018354  74.7392225  12.9649854  70.3424692  75.1635551
  11.7954290  69.4981098  74.7050953  13.8149238  53.7209082   4.9017483
  13.9110291  53.8016224   3.9528117  14.4076312  53.0089998   5.1428205
  43.3168745  84.9854946  77.3821402  43.4333801  85.9334564  77.3187017
  43.1931639  84.8214149  78.3170271  78.9378977  79.1308403  89.6137619
  78.0060053  79.2421341  89.8019600  79.2366648  78.4868288  90.2558041
  99.7961903 101.4276886  90.4739380 100.5024147 101.6311073  91.0872078
  99.7700787 100.4712105  90.4474354  12.5494170  75.8073473  90.2216339
  11.6474795  76.0545731  90.0176334  12.9712212  75.7140160  89.3674660
  94.3253517  78.6228704  74.9460936  93.5018158  78.8075542  75.3976536
  94.9983025  79.0050745  75.5093718  29.6062875  59.2759418  64.2622280
  29.6029639  58.4150410  64.6806431  28.7033963  59.5839167  64.3407965
  16.6549516  50.7958460  88.3071518  16.3997090  50.4636145  87.4465084
  15.8632147  50.7160473  88.8391399  94.9974632  80.3717613  50.5877018
  95.0875854  81.1987782  50.1142454  95.8675003  80.2081013  50.9516716
  88.5807705  70.3981113  61.2334681  89.2409992  70.9684086  61.6272974
  89.0386486  69.5715284  61.0807037   6.2929225  82.1023083  72.5239992
   6.6099030  82.8032494  73.0935955   7.0731372  81.8003559  72.0589018
 104.3776608  63.8497829   0.7448200 104.5432091  64.6735382   0.2862963
 103.8851452  64.1047144   1.5249932  52.7137947  19.1884530  55.5941153
  51.9830942  19.3220961  54.9904156  52.4270773  19.5963478  56.4112091
  62.8787041  40.8717537   5.1127481  63.3601856  40.4316282   4.4122508
  63.0538893  40.3441286   5.8919495  62.7535772  11.2228715  78.0401564
  62.0986843  10.8314288  77.4621248  62.3024654  11.9626796  78.4468699
  52.2114944   2.6628885  87.6896572  51.8670511   2.3731706  86.8448734
  53.1619883   2.6019275  87.5944042  12.0194662  27.7496481  54.1925144
  11.5963233  27.0169520  53.7449217  12.5627291  27.3381948  54.8646784
  32.2011018   3.7092432  76.5072584  33.0662274   3.8835302  76.1365652
  32.2045946   2.7701116  76.6923332  16.2813354  66.7642212  81.8648052
  15.4273582  66.3629818  82.0259380  16.5082169  66.4952374  80.9746361
  29.3659672  95.5846484  91.8908867  29.0086255  96.4548714  91.7141113
  28.9875016  95.0276072  91.2106654  19.1036665   6.0049134  25.7465148
  18.7689865   6.0135138  26.6432571  19.3352592   5.0901175  25.5860639
   3.8140047  37.3304820  57.0468807   2.9433468  37.5646019  57.3683977
   3.8901222  36.3926768  57.2228336   6.9296807  86.3793945  87.4024391
   6.0953218  85.9814167  87.1540642   6.8337446  87.3025894  87.1684647
  16.5005887  83.3510971  88.2392025  16.4921260  84.1808701  87.7620888
  17.2020793  82.8457451  87.8283978  44.4420528  29.7381473  56.5341759
  43.5013342  29.8725462  56.4191961  44.5468855  28.7870216  56.5586281
  25.9687972  57.4346066  89.3023014  25.1591778  57.8319168  89.6230602
  26.4380908  57.1740389  90.0948238  23.0219960   3.8022244  67.9091263
  22.1765733   3.3794966  67.7581406  23.0268788   4.5487618  67.3100519
 100.9082508  23.0254626   2.6452535 100.0532436  23.1449699   3.0586702
 100.9341145  23.6862183   1.9531806  93.9624023  60.1563406  25.7672119
  94.0344810  60.5788851  26.6230679  94.3224621  59.2797184  25.9018111
  62.0929337   1.7050505  69.3540049  61.2089491   1.5879145  69.0060329
  62.1409607   2.6344341  69.5779943  40.9726858   3.6818084  47.5766611
  41.6847944   4.0105489  48.1253481  40.2426434   3.5545784  48.1825352
  91.6193485  50.4316092   7.7025819  92.2646809  49.8802996   7.2600472
  91.4708900  51.1588430   7.0981646  62.5256951   0.7894201  74.9986029
  63.4596164   0.8491964  75.1997328  62.4113567   1.3420266  74.2254305
   4.3973732  40.2470255   7.1677494   5.0973898  39.8039317   7.6472050
   4.3040162  41.0923147   7.6070660  20.5489049  70.5083020  91.3495006
  20.6047330  70.4754753  92.3045069  21.3193593  70.0270171  91.0478524
  60.5633926  20.5291486   3.0097115  61.0600471  20.2011275   2.2600687
  61.0997629  20.3033781   3.7696886  10.8725607  81.1503506  78.9155579
  10.2569723  81.8667126  78.7603140  10.6772685  80.8552361  79.8049402
  99.0669537  74.0688705  34.5688033  98.8889885  73.7460232  35.4521656
  98.4706879  73.5728502  34.0078568  64.0695333   6.0775107  82.8067493
  63.3039474   5.5665576  83.0694962  64.0735292   6.0286534  81.8508053
   0.9676511  68.5853863  80.4375935   0.6474692  68.0685806  79.6982527
   0.8153567  68.0297804  81.2020111  38.7068915   2.0853877  83.4806824
  39.2754579   1.3225785  83.5859776  39.1295123   2.6067305  82.7981663
  42.3274469   6.2169975  66.2804604  43.2596302   6.0423881  66.4099884
  41.9049644   5.8508694  67.0574331  12.8605056  67.3263359  71.3929319
  12.7697086  68.0809927  70.8111382  13.0544829  66.5944290  70.8073378
 102.3747540  36.0766435   9.3018788 102.5874329  36.1533141  10.2319992
 102.1566582  36.9686556   9.0317321  34.4407845  51.3622856  28.0205154
  34.3221784  51.4396620  27.0738506  35.3713727  51.1667776  28.1301236
  98.9786148  62.2599316   2.4859303  99.8802376  62.1181631   2.1974444
  98.8044262  63.1793213   2.2844085   2.4442627  28.8999557  18.9192510
   3.2695308  29.2089629  19.2929864   2.5646585  28.9808273  17.9731023
  23.3456230  66.3846588  70.7301092  24.1589689  65.8833885  70.7886362
  22.6581097  65.7205772  70.6795645 102.0273304  17.1554148  11.0971391
 101.1406708  17.1161008  11.4556348 101.9648743  17.7762127  10.3712320
  23.4794211  91.6424084  79.0556383  23.6092567  90.7084274  78.8911390
  24.0222216  91.8283939  79.8218060  82.1802330  62.8572321  22.6317596
  83.1342602  62.9329062  22.6135540  81.9764900  62.2294521  21.9384956
  98.2819462  34.3243504  15.2008712  97.4779224  34.3740106  15.7178915
  98.5195351  33.3972263  15.2159595  89.1294098  15.4903090  74.2225361
  89.5652962  14.8544228  74.7898865  89.6613598  15.5056095  73.4269094
  87.3924255  29.6954536   2.7403146  86.9853878  29.2613196   3.4900379
  87.4554253  30.6143641   3.0008280  19.1093183  82.0749855  51.5587234
  18.3719885  81.6863823  52.0294285  19.4607496  82.7294064  52.1624279
  28.9661479   9.5605969  79.2185831  29.0971160   8.6917078  79.5982027
  29.5799851   9.5964700  78.4849977   7.6184589  81.2488651  82.5655174
   7.1843356  82.0923805  82.4380970   7.7351588  81.1802769  83.5130978
  38.4749413  92.8848362  76.9509268  38.9130211  93.2501698  77.7195930
  37.7602196  93.4952641  76.7698717   3.6040595  25.6809139   1.8353537
   4.1525653  25.6124043   2.6168138   3.9944854  25.0662708   1.2140541
  31.8887401   1.1331986  68.3879614  32.4465442   0.4142626  68.0909443
  32.4206805   1.9183552  68.2583475  15.8065629  34.5307589  58.7771845
  16.1302888  34.2253494  59.6246243  15.5570066  35.4420638  58.9304066
  12.2074783  69.3701410  87.8497124  11.6318893  69.4653654  88.6085606
  11.7942083  69.8995733  87.1676922 102.4989223  54.8469925  13.0160189
 103.4103012  55.0929451  13.1745565 102.3500061  54.0962029  13.5907972
 102.7114677  67.9407501  65.2148533 102.9000187  68.5627270  65.9175825
 102.1576500  68.4286451  64.6053743 106.5490246  75.8305120  10.3035998
 106.1247444  74.9885607  10.4689360 105.8368015  76.4689541  10.3404236
  43.9205421   0.7926339  60.8358240  43.1364055   0.3872937  61.2060404
  44.2563285   0.1437825  60.2173758  16.6282642  81.1993027  69.0695143
  16.7395854  81.9567776  68.4949923  16.9526529  80.4594898  68.5560131
 104.2755127  33.5379601  67.2706747 104.2528343  32.5945497  67.4309731
 105.1709938  33.7964773  67.4886560   4.9705979  71.0821676  80.4448128
   5.4135782  71.5235949  81.1694813   5.6722409  70.8682013  79.8298788
  16.8190038  51.9548798  85.0040531  17.4000025  51.2340355  84.7610474
  16.4885962  52.2878981  84.1696930  98.8461781  31.3111448  34.9946165
  98.5868549  30.8876181  35.8129096  98.8599014  30.6020498  34.3517876
  89.8558140  51.9795561  78.9289570  90.0857449  52.8198195  79.3255854
  89.4043922  51.5017843  79.6247959  18.7459612  56.5949488  58.0471039
  18.7527907  57.0136213  57.1863508  19.2651248  57.1778584  58.6011028
  49.4506216  83.8946056  10.7852221  48.9435291  83.1252861  11.0445106
  49.9603987  84.1189766  11.5636957  32.6351094  44.1478300  59.6694756
  32.1503758  44.5562124  60.3867531  33.5158682  44.0157509  60.0202560
  83.5954475   0.8002067   4.2809820  83.3361435   0.7322063   3.3620870
  84.1368961   1.5886196   4.3193412   7.5267094  67.4419641  59.5444250
   7.9754406  67.1860504  60.3502655   6.6434813  67.0851707  59.6384430
  29.0126157  65.5873108  58.3080959  28.1002378  65.7695007  58.0831337
  29.4092798  66.4514542  58.4183025 105.4137135  51.1705685  71.0837889
 105.2810478  51.5567446  71.9495249 106.3599110  51.0394526  71.0224628
   2.2544050  57.2707748  52.5346947   2.5599560  57.3273897  51.6293383
   2.6780865  58.0064201  52.9769087  27.0794702  65.6726599  86.6800785
  27.7160335  64.9733305  86.5319061  26.3040638  65.3984308  86.1904144
  13.0974293  81.8134689  84.1155624  13.7069499  81.1211872  83.8596916
  13.3607650  82.0475388  85.0055599  42.2172785  10.7239115  70.4545259
  41.8966579  10.9517896  69.5818806  42.0600748   9.7826678  70.5292130
  10.7703197  39.5664644  70.7344437  10.5818975  40.1073933  69.9675512
  11.5225685  39.9903584  71.1475611   0.9205122  96.0800076  85.9985542
   0.7251068  96.7730522  86.6292191   1.7614964  96.3328743  85.6177235
 109.4191074   9.0795845   4.0347457 109.6191311   9.8430240   3.4930992
 109.3863201   9.4217056   4.9281156  49.7091007  58.3449650  57.3201895
  48.7759256  58.4571743  57.5013685  49.8068762  57.4105406  57.1370983
  18.6962914  74.9353981  74.5271540  18.3653557  74.6769714  75.3873444
  19.0917718  75.7951164  74.6710682 108.1997490  72.0719385  69.3530750
 108.1301975  73.0265856  69.3591547 108.9747143  71.8916321  68.8209629
 100.8920860  55.5022001  32.4731374 100.5116558  54.7233343  32.0670938
 101.7859554  55.5375004  32.1325660  75.6772804  60.8609629  87.0539188
  76.2365913  61.4708710  87.5349712  74.7852564  61.1361313  87.2656059
 111.3634205  79.0089750  84.5973492 112.2415257  78.7332439  84.3344116
 110.9993553  79.4257832  83.8163567  96.6218948  66.9421911  85.1318455
  96.6735458  67.5580692  85.8627701  95.8780575  66.3788700  85.3453922
  14.5020485  58.2805538  64.3963671  14.3919933  57.3297834  64.4087505
  15.2890182  58.4237432  63.8706207 112.2584579  42.1385145  67.3005533
 111.4894217  41.6102886  67.0865631 112.8981555  41.9151068  66.6244555
 101.8261909  53.1786919  88.1209373 101.8523598  52.2227526  88.1624508
 100.9460831  53.3806324  87.8033447  20.9300852  56.3477755  67.2118950
  21.6744661  56.8860531  66.9428444  20.9283924  55.6158686  66.5950203
   2.1547362  49.2275476  81.9522858   2.9395324  48.9560795  82.4283409
   1.6687569  49.7645903  82.5780964  99.3580914  91.0118484  69.9244833
  98.5258961  90.9064388  69.4634199  99.7796059  91.7540455  69.4912434
   7.8750300  48.5287333  47.7399874   8.5915941  48.9477396  48.2166481
   7.6941943  49.1210890  47.0101595  38.9745617  90.8677864  54.3975449
  39.2212892  90.3191185  55.1420689  38.4815598  90.2830124  53.8220358
  23.0411172  95.3532600  61.1231899  22.1706796  95.3365040  60.7253361
  23.1770468  96.2697887  61.3634396 101.8882179  75.4226971  42.2636652
 100.9655380  75.3762770  42.0132113 102.0754719  76.3599730  42.3155069
  91.9297695  41.1610937  59.7125626  92.3640919  40.7915783  60.4813623
  91.2968254  40.4925299  59.4505930 110.4105949  63.2693529  86.3782310
 109.5073605  63.0083036  86.5578461 110.4510021  63.3522224  85.4254818
   7.2286928  30.2948093  63.0348206   6.6356593  30.5190945  62.3177147
   8.0073428  30.8288765  62.8776312  91.6931343  53.2949829  66.9021177
  92.6079369  53.0204487  66.9653940  91.4168358  53.0087471  66.0315084
  27.7339554  90.9867096  64.5262909  27.1490765  91.6461182  64.1530275
  28.3180332  91.4821053  65.1004601  33.4900117  17.2659874  81.6015244
  34.1667509  17.0253170  80.9688091  33.8503981  18.0245602  82.0607853
  29.9391460  64.3398428  38.7065911  30.1777220  63.6038780  38.1429648
  30.3687191  64.1515827  39.5410109  34.0909481  82.3174858  54.2725801
  33.7617302  81.4597702  54.5412302  33.4722447  82.9412556  54.6525097
 102.1293163  10.0752306  12.7510703 102.8467846   9.5312893  12.4261093
 101.7068195  10.4115832  11.9607568   7.0848072  83.7438202  74.5604515
   6.6904086  83.2487583  75.2784967   6.6193348  84.5802212  74.5621634
 111.6045952  27.6597095  32.9261446 111.4713001  27.6628351  33.8740134
 111.2060928  26.8410039  32.6309371  10.1727450  77.2072792  39.3399382
   9.7537136  76.5061522  39.8389983  10.6459475  76.7545509  38.6418343
  20.6267357  78.4907961  81.7549706  21.0823488  79.2326117  81.3570309
  20.1683712  78.8664818  82.5066376  14.6530390  43.7145185  77.2110987
  15.6033862  43.7463140  77.3209190  14.4551027  42.7839470  77.1057844
  75.9432507  16.7026889   0.5570576  75.4015350  17.4519658   0.8047652
  75.7447290  16.5590894  -0.3682533  24.5451713  53.6733675  78.4245777
  25.4647756  53.6963129  78.6892128  24.5402002  53.1539679  77.6205683
   3.6626372  29.2086482  52.5831604   4.4510305  29.6314168  52.2426653
   3.8205987  28.2726336  52.4600506 105.6464577  88.0343533  60.7723713
 105.0311470  88.3965015  61.4099312 105.5208397  87.0871639  60.8295584
 112.3451045  57.7429533  76.9283485 112.2834351  56.8606949  77.2944784
 112.3601932  57.6085138  75.9807587  92.2915936   8.8920259  72.4819136
  93.0860233   8.4412134  72.7680826  91.8427563   9.1254365  73.2945013
   0.2395517  83.0445576  63.2893229   0.5011827  83.7081146  63.9276600
  -0.7091253  83.1465816  63.2129383  20.5712175  46.8181944  87.1364498
  20.1962423  46.6044950  86.2820721  20.7456374  47.7583694  87.0930862
   9.9269402  35.0509191  75.0252628  10.7277560  35.5672812  75.1163530
   9.7991651  34.9718523  74.0799284  40.8773708  45.0628805  70.1040840
  40.1406479  44.4708824  69.9523878  41.2475681  45.2123642  69.2341185
  26.8024397  59.2572498  64.0485573  26.4173365  58.5613012  64.5810843
  27.0301437  58.8291597  63.2232523  37.1974778  85.3127003  75.8856249
  37.1793437  84.3629932  76.0037756  38.1191158  85.5167580  75.7269621
 104.9095726  46.8387127  29.2128348 105.5863380  47.0954037  29.8391914
 105.3118324  46.1382723  28.6992216  98.5316086  68.8005018  68.2918644
  98.4334564  68.1893492  69.0219927  97.7208138  68.7081146  67.7915430
  85.0147915  47.9619074  51.9530964  84.4022846  47.4247599  52.4556398
  85.8710384  47.7702141  52.3356152   5.3956616  60.9957695  53.2620001
   5.6039894  60.0675344  53.3678913   5.6707346  61.2025976  52.3688078
  55.1371193  98.2759094   4.9382570  55.4777193  99.0672970   4.5212102
  54.2264318  98.4867191   5.1442707 112.7489141  68.8696194  84.4623947
 112.1472149  69.5199823  84.1001511 112.3597258  68.0269003  84.2287350
  25.4932690  57.0119667  51.3274288  25.0851107  57.3663616  52.1173906
  25.0907159  57.5010490  50.6098080  41.2211514  52.3523760  39.7811794
  42.0731544  52.0361519  40.0817204  40.7024574  52.4398947  40.5808878
  11.7448080  66.1794090  56.4902496  11.2571502  66.5946388  57.2015905
  11.8306601  65.2651691  56.7604733  15.5793726  62.4311829  63.3725023
  15.8409321  63.0829000  64.0229464  15.7538986  62.8503656  62.5298500
  83.5300827  75.6165457  61.3674784  82.7347946  75.4640388  61.8778658
  83.3278751  75.2682352  60.4991341   9.3271071  12.5367069  41.7431784
   9.4580621  13.4043956  42.1255398   8.7097234  12.1053410  42.3339367
 110.1200581  70.3232622  44.1292000 109.8769188  69.5330572  44.6115780
 109.8526955  71.0438967  44.6996737 105.6642151  55.1427317  73.9543009
 106.6143417  55.2588606  73.9570665 105.5283451  54.2899609  73.5413122
  15.3946555  70.8116484  70.0180960  14.9524951  71.5308094  70.4692459
  15.3430438  70.0773144  70.6299162  21.0559916  46.9873953  57.0425987
  21.3807273  46.1609173  56.6852331  21.6560102  47.6492119  56.6987848
  76.1671495  50.6635904   4.1374528  76.7019367  50.6026649   4.9289846
  76.7811394  50.5039167   3.4206873   9.0515047  54.9531746  28.5844469
   9.3901587  55.7929611  28.2741117   8.4440190  55.1847696  29.2869830
  14.4901800  91.1487865  68.6199331  14.7533047  92.0466900  68.4180498
  13.6598969  91.2417889  69.0870667   1.3615006  54.3918896  69.8881102
   2.0248154  54.0069914  69.3153095   1.8348613  55.0544024  70.3913355
 102.9664707  72.1153116  48.9878941 102.4792290  72.2266483  49.8042440
 102.2919941  71.9715309  48.3240938 105.0337791  91.5499783  79.2949724
 105.2015972  90.6909275  79.6824026 104.2947388  91.8976212  79.7941685
  13.7216198  70.3472710  42.9902649  13.0755830  70.1858473  43.6778784
  13.3157825  71.0097075  42.4310637  82.6985645  87.4782085  64.3055010
  83.2949638  87.4261951  63.5586119  83.2639694  87.3758602  65.0710583
  29.3891311  24.9165726  32.8720808  29.1923428  24.5866466  33.7488103
  29.8268700  25.7541466  33.0240297  97.6380730  86.2608242  53.5544491
  98.4438419  85.8928680  53.1917143  97.5698757  87.1281147  53.1552076
  21.2844586  51.4581013  82.3930740  20.5530810  51.4528275  81.7755890
  21.7806935  52.2456074  82.1698666  94.4658089  56.8169546  75.3413773
  95.0090694  56.4461899  76.0368109  95.0000572  57.5180244  74.9681330
   8.7940705  73.6829281  69.5415115   9.2956507  72.9288006  69.8512506
   8.5421365  73.4521198  68.6473703  23.4887123  77.9887056  53.3285618
  24.2591596  78.0622721  52.7653313  23.1971264  77.0836639  53.2185364
  22.6157618  83.4170246  88.9841366  23.5585570  83.3006287  89.1016865
  22.4427581  84.3040180  89.2996311  49.9195147  15.3950214  52.7636576
  50.2220058  15.9683669  52.0593834  49.4280958  14.7056878  52.3169374
  98.5410404  13.0485249  31.7971396  97.7062035  13.4665287  32.0081854
  98.8890934  13.5629225  31.0687923  99.7609901  80.7264709  41.3607740
 100.0220871  80.5521393  42.2650242 100.2614975  80.0972080  40.8414030
 103.3982086  94.5226955  83.2958794 102.6080036  94.1054058  83.6389256
 103.1279278  94.8932457  82.4557209   6.2724102  64.8720407  67.4645901
   6.7123526  65.4821205  68.0566072   5.8234906  64.2570639  68.0446815
  21.0701442  60.1912832  77.0885515  21.2381029  59.2556810  76.9760180
  20.1803970  60.3163004  76.7584705 105.8216381  83.2693958  84.0264225
 105.8440113  83.3042431  84.9827194 106.6609097  82.8798676  83.7812424
  91.1970139  13.7165749   5.0261223  91.6487408  12.9342401   5.3425634
  90.7493114  13.4292483   4.2303610  67.7126551  53.1890965   1.8302350
  68.0293179  52.9990911   0.9471405  67.0322418  53.8503265   1.7035931
   8.8117456  88.3755302  59.1829062   8.7436920  89.2797375  59.4895267
   9.5916533  88.3688545  58.6279917 100.5163670  44.5662117  21.6701746
  99.9215889  44.2232847  21.0031891  99.9468994  45.0331640  22.2816420
   5.6204200  87.5428009  70.6136751   5.1810712  87.1049976  71.3427353
   4.9365440  87.6525402  69.9529886  32.3120332  59.0167236  54.5881701
  32.0003963  58.3025217  55.1440811  32.0357108  58.7710714  53.7052584
  81.0542965   6.8244654   1.3105091  81.6463757   6.1015326   1.1030479
  81.4234352   7.2168678   2.1017021  25.0279737  97.7916908  14.3097782
  24.9716473  98.1274605  13.4151721  25.8302402  97.2696686  14.3196106
  24.3444633  65.0349045  74.9371815  24.4993949  64.3429995  74.2941475
  23.7332249  65.6312561  74.5047665  13.4783435  54.3480921  49.4191170
  14.3163204  54.2121220  49.8613119  13.5193014  53.7813950  48.6487865
  28.2330012  54.6611929  71.0576487  27.7719879  54.2511320  70.3258324
  27.8090811  54.3041277  71.8380499 108.2583141  72.9655552  90.7072830
 107.5696087  73.6293936  90.7424736 109.0742683  73.4652710  90.7345104
  35.4776716  97.4626732  42.5488949  35.4359555  98.3617687  42.2231436
  35.2070427  96.9253826  41.8043756  23.5238934  61.9991398  59.2029953
  24.1499496  62.7086973  59.3472385  22.9578924  62.0185518  59.9746799
  18.6708987 102.8561306  73.4004021  18.9102948 101.9505405  73.5974455
  17.7137005 102.8566551  73.4022427  48.6153316  75.1721287  53.3066034
  47.9636765  75.3631115  53.9812183  48.4441471  74.2635965  53.0586100
 101.4269829  77.3260880  68.6987114 101.4961243  76.6520071  68.0226421
 101.5932560  76.8609428  69.5186043 102.6155853  51.3309956  53.7339306
 102.8665066  50.6374931  54.3441105 101.8710041  51.7616653  54.1538668
 101.1684322  69.8823977  63.6888933 100.3645706  69.3931341  63.8639736
 101.1287594  70.0814247  62.7534580  54.5210361 102.7590942  65.2739477
  55.1119661 102.0906925  64.9271393  54.0620708 103.0956554  64.5043278
   8.3580482  58.3094501  60.2093124   9.0183717  59.0012169  60.2500963
   8.2510328  58.0266476  61.1175013   8.4240818  59.4108915  77.1067047
   9.2874938  59.5873022  77.4803734   8.5917109  59.2620039  76.1761284
   9.1812074  83.1247234  78.5427189   9.9895591  83.4615326  78.9291906
   8.8665813  83.8373756  77.9865122  94.0608692  98.9851475  57.3246193
  94.4705582  99.8494244  57.2871590  94.7959232  98.3724880  57.3485279
  42.6843023   3.1268227  90.7516098  42.7649784   3.9338231  91.2600136
  41.7588282   2.8921816  90.8199787   2.8358340  81.5130806  70.5564690
   2.8134900  82.3184776  70.0396776   3.7187585  81.1679268  70.4240131
   1.3611395  34.0435910  46.6950941   0.6850321  33.6295557  46.1587286
   1.2362081  33.6707616  47.5678062  41.7233515   4.3966636  52.3488712
  42.0847464   3.5103491  52.3404551  40.9408760   4.3414834  51.8003035
  17.8887129  68.3596277  70.5164719  18.0853748  69.2778111  70.7021999
  16.9527507  68.2737541  70.6976652  18.0760205  70.7728624  71.7953825
  17.2648275  71.2605333  71.9381237  18.6495578  71.0473442  72.5108862
  18.8229418  53.9756727  26.8507695  19.4755065  53.3480358  27.1613574
  19.2117274  54.3552017  26.0627103  98.3293247  90.5091763  30.8097982
  98.2515430  89.5923424  30.5459857  99.0231514  90.5106354  31.4692116
  14.5474434  74.3927860  41.3268661  15.4485905  74.6586704  41.5098190
  14.1397631  74.3185329  42.1897173  17.1603310  89.5175362  47.2960949
  17.4021864  89.3842697  48.2125998  16.2429905  89.2483044  47.2488737
  25.9595704  64.8616600  69.9714565  25.9928012  64.8891449  69.0152264
  26.5942955  64.1874313  70.2138901  40.5389829   0.7842797  58.0073547
  40.2869557   0.1984662  57.2935390  41.4880262   0.8734960  57.9202414
  23.7364006  93.5012436  32.9130030  24.2351651  93.5372162  32.0968103
  23.0570316  92.8469563  32.7498984  17.3596966  63.6175251  67.2439718
  18.1482220  63.2110500  67.6034689  16.9519806  64.0527821  67.9926729
  99.7122955  33.6341095  72.5584888  99.3244934  33.1171942  73.2646370
  98.9653587  34.0504313  72.1283770  77.0133734  80.5893230  53.8953686
  76.7226076  81.4443874  54.2124605  76.2899065  80.2766228  53.3521843
  96.0880566  85.7108498  69.3434095  96.5609932  86.4745617  69.0127897
  96.6338348  84.9649334  69.0944958  99.6364594  74.3897867  51.6013050
 100.2597332  74.5631552  52.3067904 100.0381374  74.7807455  50.8253908
  14.9434221  89.0367317  72.6327610  15.1122153  88.2820511  73.1968546
  15.7506776  89.5496655  72.6710224   1.6186103  75.1831865  77.4786615
   1.5569776  74.2431450  77.6482248   1.9070801  75.5582428  78.3107376
  11.8905246  86.1532784  70.0335693  12.8356850  86.1548042  69.8822355
  11.6469264  87.0789623  70.0364494  33.5023141  79.2229128  52.2952890
  34.2018986  78.5777235  52.3979712  32.7866006  78.7369919  51.8855667
  95.9061241  51.6332388  19.2065477  95.0313282  51.4542198  19.5513749
  95.9124184  51.2200451  18.3431458  65.3273058   3.9211631   3.1920078
  65.9164143   3.9744759   3.9445639  65.9048033   3.7541741   2.4471271
 112.1254615  49.0468264  46.4442348 112.9584229  48.5756588  46.4643908
 112.3732956  49.9683237  46.3690519  79.0620995  67.1167374  46.5902328
  79.2315483  66.8171358  47.4834013  79.3303108  68.0355930  46.5908861
  22.8822422  65.1197338  28.6623549  23.4516549  65.7333326  28.1981468
  22.0300031  65.5548859  28.6860466  24.9854159  88.9080048  40.8464384
  24.5055413  88.4100151  40.1846600  25.0605154  88.3089447  41.5892124
  79.0672445  20.1504564   6.8698227  79.7694397  19.8010969   7.4185503
  79.5210314  20.6276226   6.1751139  43.9288664  60.1385593  26.0893536
  44.4125891  59.4124699  25.6956077  44.3000174  60.2254295  26.9673800
 103.7242603  89.7323799  72.9517889 102.9468632  90.2685261  73.1080961
 103.4429073  89.0854263  72.3048496   4.9769375 101.3695812  29.0792894
   4.1069651 101.2549877  28.6968660   4.9407306 100.8876991  29.9055505
  64.2027617   9.2053902  75.0378370  64.9229145   9.0478736  75.6484079
  64.5706797   9.0060031  74.1769600  70.1144981   4.0226951  24.4993734
  70.1457834   3.0887687  24.7068214  70.4938173   4.4513032  25.2666044
 112.1577168  71.6761684  58.6729097 111.9794846  71.3402319  57.7944994
 111.8284130  72.5747967  58.6570549  18.4908044  96.3530540  61.6179180
  18.0444419  96.9162178  60.9855890  19.1663396  96.9122219  62.0016146
  60.6549644   2.9283166  66.8214083  60.1816940   3.2614523  67.5838137
  60.4126120   3.5220790  66.1108112  36.3802528  93.3517265  79.6910954
  36.0484791  93.7506008  80.4954910  37.2173190  92.9625797  79.9443007
  92.9294205  53.2410765  71.7305422  92.6395321  54.0279865  72.1920204
  92.2714996  53.1074953  71.0482407  32.7215099  72.8091669  69.1516495
  32.9453278  73.7380171  69.0935707  31.7741752  72.7991629  69.2883587
  17.8794014  54.3756151  60.0501776  17.4139607  53.7898302  59.4531441
  18.2165456  55.0726652  59.4874287 105.0998306  77.4055862  81.4015007
 104.9983597  76.6830826  80.7818794 105.9092712  77.2059011  81.8717861
  20.2463913  75.8242226  76.8943071  19.4408357  75.5277872  77.3179054
  20.6922460  75.0174284  76.6363716 101.6237354  13.3438730  36.7071819
 102.4246407  12.9722226  37.0768738 101.5013313  12.8755331  35.8814073
  31.2245822  71.0414457  86.5941620  30.5778241  71.0434389  87.2998047
  30.8522010  70.4618645  85.9295940  67.6900482  14.3333387  59.6531200
  68.0929375  15.1384270  59.3279362  68.4074879  13.8594532  60.0737667
  35.1454997  90.3760815  89.2841244  35.0278664  90.5835056  90.2111435
  34.3020988  90.5856609  88.8828945  46.7712879  13.7273693  57.4919128
  47.7268362  13.7825298  57.5027132  46.5028477  14.0531445  58.3510113
 112.2989368  63.6176300  58.3981180 112.6497841  63.7256193  57.5141048
 112.3956394  64.4804096  58.8012314  20.2911377  98.2769203  62.2427893
  21.1356997  98.0165577  61.8751478  20.3584957  98.0622387  63.1731701
 110.9511662  33.2343554  57.5081730 111.2327003  33.7045956  58.2929277
 110.3068733  32.6018953  57.8261518  84.6567440  74.4374752  73.5659742
  84.6549511  74.9962091  72.7887678  85.1681042  73.6704254  73.3083439
   8.0284452  33.2055783  85.3340149   7.8752339  32.9298186  84.4302940
   7.1902770  33.5698462  85.6186485  24.8767591  33.4635520  14.8649943
  23.9711237  33.2452941  14.6449459  24.9134469  34.4183969  14.8087966
  35.2576900  74.0659571  37.9265380  35.4161119  74.5384550  37.1092987
  34.3412352  73.7949419  37.8727221  12.3346758  86.5213585  46.3150120
  12.0003283  87.1648216  45.6901932  11.7227900  85.7878113  46.2539244
   1.5899169  47.7191448  19.6191645   0.7237419  47.9786110  19.9332523
   2.1070400  48.5240316  19.6504295 101.6641140 100.0263596  41.1615324
 101.2115955  99.4708538  40.5268145 101.0118294 100.1929569  41.8419743
 105.6642628  82.3165607  65.2711058 104.9203873  82.9176044  65.2308273
 105.3436375  81.5724468  65.7807350  88.6555958   2.5759834  70.3363037
  89.2419529   2.9703972  69.6906662  88.5448742   1.6728440  70.0391293
  69.4214106  19.0809059  55.9014893  69.4008350  18.3131588  55.3302002
  70.3128815  19.0965009  56.2497234 101.2540531  59.2033863  90.0004005
 101.7051888  59.2135954  90.8445644 100.6005001  59.8993111  90.0696754
  51.2699652  63.6306667  59.2279053  51.9830179  63.0218267  59.0352869
  50.5373383  63.3169079  58.6977673  33.2489014   3.4927213  68.6394024
  32.8108525   4.3437564  68.6302567  34.0161777   3.6242512  69.1963768
 110.8023930  62.4599552  91.2398720 111.1583233  62.5799370  92.1203041
 110.8170795  63.3358860  90.8541679   7.9635423  83.0061626  36.5987372
   8.1817663  83.6353588  35.9111905   8.1349260  82.1511078  36.2040925
  88.0741119 104.2484283  90.2563572  87.3475742 103.9591789  90.8083534
  87.6533222 104.6886730  89.5178795 104.3149948  94.4381523  52.5273132
 103.9990997  94.5613289  53.4224558 105.2567768  94.6005344  52.5812006
 102.4215317  87.2056675  76.6030455 102.4735928  86.5159416  77.2647142
 102.6506042  88.0069828  77.0738363  29.0142059   8.2875496  28.9738250
  29.2730379   7.8237998  29.7701764  28.9589930   7.6041341  28.3059001
  11.9430518  41.2150240  86.8893623  12.6289785  41.8322325  86.6348171
  11.2073851  41.4237118  86.3136196  21.5210938  74.9073362  57.7075624
  21.4665341  73.9627218  57.5628138  21.6504097  74.9979067  58.6516523
  88.0830288  73.4249163  74.2638969  87.7055168  72.7922106  74.8749638
  87.9724598  74.2714024  74.6968746 106.9938850  87.5476742  72.1721792
 107.6389122  87.9320812  71.5785456 106.4725208  88.2916737  72.4736404
  39.0949035 101.4468765  27.6071095  38.6677384 101.1597729  26.8000531
  39.5692730 100.6745434  27.9148483  32.2335672 104.5673370  70.0086021
  32.4496984 103.6364841  69.9535513  31.4366388 104.5972919  70.5379820
  45.4692888  61.7620134  87.2776127  45.2128506  60.8677435  87.5028801
  45.0538588  62.3060513  87.9467010 103.1795883  57.5297308  43.6879158
 103.2085609  57.1959734  42.7912569 102.6578712  58.3300781  43.6288261
  78.5194826  71.8314552  74.3380642  78.2507515  72.6856804  73.9999580
  79.3447685  71.6454506  73.8902521  27.9580474  53.9541149  76.3423252
  27.7673221  54.7020102  76.9084597  28.8311529  54.1341114  75.9937239
  66.1192656  96.4412212  44.6494198  65.4869556  96.9282150  44.1209745
  66.8661499  97.0336533  44.7355461  20.8932567  72.9409361  77.0820522
  20.4920864  73.2519627  77.8935719  20.3542018  72.1949911  76.8189573
  78.3008575 105.7629585  15.5990815  77.3844099 105.8203602  15.8693767
  78.4436131 106.5467262  15.0684643  23.1584573  50.5970001  50.4780769
  23.9655185  51.1071157  50.5463696  23.2931542  49.8554659  51.0681772
  92.4140644  79.3862343  45.3968096  92.8494644  80.1774311  45.7140875
  92.4720860  79.4469118  44.4432974  97.3985291  71.5196705  63.1510544
  97.7123165  72.2836065  63.6349678  97.7316761  70.7701588  63.6444855
  93.7123299  40.9804153   4.2492384  92.9483604  40.6426907   3.7817600
  93.5436630  41.9184828   4.3376052  44.7353601  73.9679670  56.2811708
  44.5973110  73.0553341  56.5346909  43.8701773  74.2746735  56.0098362
  21.8712544  83.4820938  47.0728970  21.3966823  84.0228176  47.7042675
  22.7637100  83.4402752  47.4164152   8.6681944  72.5538540  59.2738056
   8.2862461  73.4227943  59.1501665   8.5297120  72.3610878  60.2011156
  39.5809388  78.4165382  36.7793202  39.0622926  78.9817381  36.2067938
  39.2348647  78.5817337  37.6563454  18.7053847  62.5925970  46.6541338
  19.5722485  62.5392342  46.2517262  18.7786484  62.0677805  47.4512720
  25.5089688  76.3749266  52.1270609  25.7874131  76.2046146  51.2272310
  24.7856331  75.7653332  52.2733927  93.9343548  59.5893431  58.3673096
  93.8848305  59.5713520  59.3230581  94.1178131  60.5042934  58.1541586
  11.1714065  56.4860868  55.5025959  10.2627075  56.2975073  55.2682161
  11.1109996  56.9669771  56.3280249  71.6432619  22.5294256  43.8598490
  72.4097538  22.6869702  44.4111156  71.5890789  23.3027148  43.2983112
   7.3783135  99.5477390  41.7647696   7.6215696  99.8981667  40.9078789
   8.1369120  99.7260857  42.3206091 108.7879181  84.8857212  85.2889442
 109.0951061  84.6677780  86.1689186 108.4331989  85.7709312  85.3714848
 103.8661289  85.1024246  79.9978113 103.5753155  84.2872810  79.5889282
 103.8516998  84.9177647  80.9369183  26.4298487  81.2290192  72.1440840
  26.7648339  81.9581127  71.6221189  25.7466412  81.6189194  72.6894617
  64.6377516  98.2313156  57.2514534  64.5510769  98.5589027  56.3562441
  65.5087328  98.5165596  57.5276041  25.8543754   2.6374483  89.5097733
  26.7175746   2.3660685  89.8219776  26.0268092   3.4075871  88.9681244
 111.0502052  73.4355927  49.5200157 111.1750507  73.3860540  50.4677486
 111.6335964  72.7642679  49.1661692   0.3200704  64.4944239  63.1097746
   0.6830389  65.1558208  62.5206709  -0.2577894  63.9706326  62.5548410
  68.4029055  57.4601221   5.7430679  68.0004930  56.8393183   6.3504374
  69.1725540  57.0012283   5.4064876  45.8548450  79.5424700  64.0777779
  46.7528486  79.2583370  63.9072227  45.6938601  79.2941284  64.9880791
   3.0455312  90.5313396  54.2053032   2.5825593  91.1774445  53.6719799
   2.6785141  89.6898460  53.9343309  85.4337311  82.3059845  70.4329062
  86.2749195  82.7606678  70.4763603  85.6568336  81.4146614  70.1645565
  68.1295633  25.2897215  24.0038133  68.5024214  26.1543012  24.1761827
  67.4361324  25.1934552  24.6565938   9.1114420  93.0580139  68.8066721
   8.6373997  93.6965179  68.2739258   9.5693529  93.5851765  69.4613791
  25.8761787  68.5518599  79.0217972  26.6198444  68.4069490  79.6067667
  26.2032342  68.3121777  78.1547213 111.4527988   2.3598993  67.7074909
 112.3290062   1.9810833  67.7780771 111.5959835   3.2246107  67.3227787
  18.8644040  47.1959019  84.8984623  18.5375786  48.0936861  84.8401833
  18.1569350  46.7105484  85.3229046  64.0500259   3.8703313  59.8831940
  63.9531422   3.1159049  60.4643011  64.8288012   3.6732894  59.3626976
 106.4338303  85.4212284  58.4938717 105.9155750  85.3794193  59.2975521
 106.9633579  86.2126541  58.5912466 110.3025913  81.4132404  64.6371794
 111.0074043  81.1150265  65.2121019 109.5035553  81.0787773  65.0444937
  26.2709904  97.8384972  60.3604460  25.9260869  98.6772060  60.0541115
  25.7697821  97.1822357  59.8763657  97.1933270  83.9095402  62.1131802
  97.9666996  84.3880653  62.4117374  97.1940231  83.1053829  62.6323748
 105.6256676  27.0232964  11.0127723 106.2360668  27.6878953  11.3320768
 104.7935677  27.4871993  10.9198916  66.7641973  98.8301468   7.4092859
  67.0012808  98.7835503   6.4830840  65.8850527  99.2087269   7.4127257
   9.7231776  67.3361063  61.5171909  10.1478398  66.7553234  60.8858585
  10.4267037  67.9044056  61.8307543 104.6015358  37.9968381   0.9288710
 104.3074512  37.3600960   0.2774846 105.5366135  38.1036043   0.7543013
  18.1849408  78.2206535  73.2289696  19.0208721  77.7977848  73.4255266
  18.4076667  79.1423655  73.0983067  14.3595922  79.6118355  70.6568003
  13.6337459  80.2297497  70.7437801  15.0480282  80.1113129  70.2176952
 102.6747322  26.9499230   7.6980674 103.0502605  27.6472664   7.1605510
 102.6181793  26.1975646   7.1090072  48.4320927  68.7019682  35.5696797
  48.4178782  68.0865002  34.8367214  48.1362724  68.1871653  36.3204813
  62.4708414 100.6672573   1.8137756  62.5293684 100.6639099   0.8583724
  62.2389174  99.7672272   2.0426835  26.2385130  91.6042995  16.2590694
  26.0982537  92.5058746  15.9697413  25.7113481  91.0757351  15.6599450
  93.2288456  67.1499681  50.8275414  93.4013462  67.8689337  51.4354515
  94.0849876  66.9421101  50.4533052  16.7270100  47.5725794  57.8750324
  16.7909861  46.9573021  58.6054897  17.3646617  47.2533989  57.2364759
  24.5543814  58.2672167  49.1260004  24.1054773  57.7281570  48.4747505
  24.2083025  59.1487598  48.9869070  27.9688501  36.1015701  58.7149811
  28.6062884  35.8151698  59.3691063  27.5946951  35.2893925  58.3735037
 111.0508919  87.3052120  87.5283813 111.0502815  87.5833893  86.6124916
 111.4370155  86.4294910  87.5124645 109.5841694  57.6066637  39.6487832
 109.9161625  58.4942389  39.5137858 109.5244408  57.2367334  38.7679791
  44.5206022  83.6652565  41.8021202  45.1176262  83.8513851  41.0774517
  43.6515713  83.6588860  41.4008951  47.8997326  80.3364658  47.1182251
  47.7893400  79.3858147  47.1356297  48.5641766  80.5126667  47.7843380
  34.5973516  88.9669418  71.3723421  33.7614894  89.2359638  71.7533779
  35.2314091  89.5952225  71.7179632 103.7503052  93.3659172  69.9555397
 103.8957500  94.3040180  69.8328733 103.2083225  93.3084583  70.7424212
  83.3855724   9.9520695  67.3476458  84.2917252  10.0602698  67.0588350
  83.3178329   9.0265197  67.5821686  26.6511917  54.3564749  65.0180435
  26.9664192  53.6761951  64.4229937  26.1792207  53.8783741  65.6998730
 109.8981380  85.3643227  52.2638464 110.4796219  84.9651241  52.9109621
 110.4593563  85.5271339  51.5057135   1.1303318  92.1661854  69.4592810
   1.5410155  91.5767384  68.8267279   1.2663203  93.0408382  69.0949726
 100.0416756  97.3927021  69.6540499  99.7601223  98.1743813  70.1293659
  99.9853611  97.6403046  68.7311459  69.0079355   9.4905853  89.6337605
  69.3936205  10.3584301  89.7534370  69.7437000   8.8860446  89.7308064
   5.2478099  81.3423729  25.8685660   6.0057425  80.7702827  25.7482147
   5.5687225  82.0509243  26.4264226  85.3815460  30.0273180   7.4677181
  85.1595974  30.9562206   7.4036163  85.6833839  29.7920823   6.5903431
  92.5495052  60.7261181  61.4239740  92.6748276  59.8110628  61.1725664
  91.6577148  60.9316063  61.1434174   8.4256095  99.1609001  62.2760057
   8.4182972  99.9498463  61.7340231   8.8732564  99.4263458  63.0793619
 106.2470341  77.0617819  67.3322868 105.3268909  77.0076275  67.5904417
 106.3127899  76.4992857  66.5606022  18.0739582  49.0304089  68.9405584
  17.2258735  49.1140890  69.3764257  18.1277716  49.7984409  68.3718204
 111.6379929  63.6889839  78.6503839 110.9484673  63.1100512  78.9753914
 112.3147678  63.0958271  78.3242273  40.8251810  80.6235886  62.2303772
  41.3631201  80.9002399  62.9722166  41.4550924  80.3095531  61.5816689
  28.6105990  68.2930803  68.2344580  28.4012437  67.3989105  67.9645300
  27.9442453  68.5085106  68.8869905  25.7081008 100.5815697  37.2009277
  24.7621727 100.7073975  37.1259499  26.0078335 101.3247967  37.7243853
  36.6749930 104.5420074  81.2561607  36.1404371 104.2104912  80.5346489
  36.9472837 105.4143524  80.9713554  14.0063190  76.7299747  53.0438137
  13.4531116  77.4291086  52.6953840  14.0227973  76.8857098  53.9881182
 105.9715843   6.8236876  71.0192156 106.2708855   7.6877296  70.7362270
 106.6077042   6.5551168  71.6821289  78.7591314   7.2322077  91.0848141
  78.4389019   8.1334233  91.1235046  79.2248678   7.1077996  91.9117546
  52.9990244  20.7288694  75.0645638  52.0889473  20.5207562  74.8531866
  53.4847307  20.5158257  74.2677355  55.3596830   8.4156656  48.6247206
  56.0969400   8.9507478  48.3308315  54.7229624   8.4732276  47.9123211
  11.1901116  91.7957592  60.7345343  10.8014011  92.3826599  61.3831377
  11.9312179  91.3944435  61.1883450  45.9540558  84.0755844  79.0318537
  45.8919954  85.0277138  79.1081619  45.0454664  83.7746429  79.0434599
  89.5493603  46.0512924  17.0816493  88.7225723  46.3215494  16.6821229
  89.2990971  45.7016182  17.9368293  29.9956822  75.4694271  49.1207123
  30.6588697  74.8237419  49.3646479  29.5234156  75.0645685  48.3931923
  60.5818796  11.8790591  53.4846687  60.2391624  11.0746598  53.8741779
  61.2055206  12.2110784  54.1304779  38.4610009  91.6337967  48.3098745
  38.0927205  90.8989906  48.8004446  38.6800694  91.2647915  47.4542618
  23.0172491  50.1552296  87.2261143  22.8382802  50.7621479  86.5078926
  23.9509416  49.9596453  87.1473885   6.6488045  73.0246973  91.2909031
   5.9933287  72.6181602  91.8577480   6.2739187  73.8754654  91.0631180
  21.9293952 101.3692760  76.6435003  22.3897696 102.2084236  76.6324329
  22.0324945 101.0277939  75.7552528  10.7541800  84.9476719  88.3852100
  11.6233778  85.2648640  88.1400299  10.5984557  85.3219032  89.2523479
   9.6673298  90.9391975  50.6408739  10.1050282  91.1315250  49.8116159
  10.2500343  90.3206730  51.0814476  75.8062267 103.1989288  35.1799154
  75.7608652 102.7145767  34.3555498  75.0049925 102.9568863  35.6443214
  84.6309662  34.8411107  12.1363556  84.2953014  34.9640012  13.0243087
  85.4803181  34.4167948  12.2579622  14.0251112  97.1040058  69.6052074
  13.4356427  96.3591671  69.7234201  14.0713370  97.5124264  70.4696655
  81.3390350   5.7879472  68.0810833  80.9068871   6.6029656  67.8256989
  81.4322186   5.2997261  67.2630405 102.1317196  68.9967537  50.9587240
 102.0733261  68.4113264  50.2036762 101.2536907  69.3687487  51.0418415
  59.9397087  19.6210802  65.5265188  59.5856047  19.1809833  64.7537565
  59.3952990  20.4018116  65.6280279  62.3688745   6.7733562  68.8159084
  62.4090624   7.7267110  68.8916111  63.2342911   6.4742494  69.0948772
  33.8494205  83.6328030  85.8203030  33.1408310  83.7991142  86.4419651
  34.4767570  83.1000900  86.3090801  99.3093014  29.1430092   3.7950420
  99.4731331  30.0644898   3.9957002  98.7929344  28.8247752   4.5355296
  81.4826775  79.8244524  21.0289693  81.2916946  79.4865417  20.1539993
  81.1424923  79.1558170  21.6234708  97.9477563  25.9177654   0.1881203
  97.7962532  25.1489656  -0.3616253  97.5856319  25.6774823   1.0409817
  78.8947248  10.2170336  90.8070183  79.4542313  10.6715453  91.4367771
  78.0077505  10.5044675  91.0235500  42.8319693  91.7765331  81.7638969
  43.4115219  91.2033749  82.2657299  41.9661093  91.6366673  82.1472359
  13.4047651 105.7091236  46.6134453  13.6689448 104.8116684  46.8159771
  13.9979804 106.2555408  47.1289587  25.1956892   1.1948364  41.4420938
  25.8093143   1.8852748  41.6930723  24.6857715   1.5758377  40.7272148
 103.0711555  77.1785307  83.2314205 103.4779739  77.4410534  82.4057007
 102.3209667  76.6446972  82.9697323  78.6493349   7.7688175  82.2491741
  77.8071404   8.0272698  81.8748283  78.5756540   6.8226773  82.3741627
  78.4734583  44.5497608   2.0149179  77.7756310  43.8984680   2.0862255
  78.0985308  45.2441740   1.4732021   9.5630217  79.1667271  51.0401058
  10.3687263  79.1281414  51.5554523   9.5996177  80.0168324  50.6016827
   7.1953821 104.6276569  59.1911888   6.4414787 104.0412235  59.1282701
   7.9550570 104.0482998  59.1322899  26.6137266  84.7337151  83.9191914
  27.2740531  84.6283627  84.6041012  26.4007425  85.6668186  83.9333248
 111.0883331  61.4153004   2.4110077 111.5702152  61.8545914   1.7102599
 111.1230850  60.4870129   2.1801351  37.3505950 100.6788254  29.9441695
  37.1537113  99.9842072  29.3156981  37.9649615 100.2782345  30.5592418
  97.4654770  38.8763261   4.4568458  98.4120941  38.9791346   4.3590307
  97.0928097  39.6038389   3.9587727  36.6143441  86.5293598  83.7555218
  35.9146452  86.2958145  84.3655300  36.9867849  87.3344707  84.1151333
  51.0166264   9.3339169  71.5363073  51.8110132   8.8605398  71.2891340
  51.2952375   9.9171036  72.2423553  12.8900409  17.7346742  58.9114046
  12.8633237  17.6101637  59.8600960  12.5341785  18.6127269  58.7749624
   6.5702170  93.6681747  57.8277731   6.6359210  92.9554653  57.1921968
   6.5556473  94.4634151  57.2952271  79.7735834  82.3246861  69.9979830
  79.9910927  83.2315445  69.7822857  79.0531158  82.1042538  69.4075823
  19.0070653  95.8642673  91.3616943  18.3010435  96.4093590  91.0143566
  18.5801089  95.0404453  91.5967369  17.2640741  41.0764503  14.3282890
  17.2064543  40.8264542  15.2504683  16.8878615  40.3343630  13.8549995
  33.2705569  83.2875443  59.0598202  33.3800435  82.8911877  58.1954432
  32.3225832  83.3308983  59.1850948  23.4141302  97.7457523  89.7527695
  23.6092830  98.4845161  89.1762638  24.1678786  97.1632385  89.6591282
  67.3364687  82.0446301  54.1889477  68.1073427  82.2879410  54.7015667
  66.7471409  82.7943039  54.2721176  41.2581158  74.3529367  46.5960836
  41.7596865  74.8570490  45.9553623  40.4190207  74.1869402  46.1664391
  94.4188213  82.4820328  72.5848246  95.2232933  82.2214222  72.1363449
  94.4177055  83.4381104  72.5384426   9.1431707  86.3643360  63.5245132
   8.4477091  86.3257122  62.8679514   9.5218503  87.2373581  63.4212112
  33.7019229  59.5628214  78.4482574  33.4665179  59.5321512  77.5209665
  32.9674172  60.0114727  78.8671207  38.2110882  97.6900578  30.2809548
  37.4516582  97.5243473  29.7223496  38.2269979  96.9509506  30.8889890
  17.6863515  73.9043856  63.1590605  17.3451376  73.6463404  62.3027754
  17.9358053  74.8221493  63.0508232  36.3442826  84.7249603  47.9678774
  37.0582461  84.5261383  47.3621082  35.7085562  84.0232849  47.8273726
  97.0826244  77.6339102  54.4257879  96.4250088  77.0581245  54.0355968
  96.5834427  78.2096052  55.0051212  90.1924610  23.0381203   9.1443568
  90.1265621  23.9260507   9.4957393  89.5637608  22.5302887   9.6572649
  30.0703573  91.9536400  83.5970306  30.2333355  91.3376999  84.3113708
  30.7038832  92.6571751  83.7381744  34.3695688 103.7554264  66.0212231
  33.6586308 104.3640995  66.2219954  35.1620340 104.2103291  66.3063383
 105.0183105  87.3550987  45.0665379 105.7162285  87.5438023  45.6938648
 104.8813820  86.4104176  45.1375866   1.9290553  84.8267174  80.5495358
   1.1873555  85.4256248  80.4633713   2.0314832  84.4453239  79.6775961
  93.0105591  45.8576727  29.5383906  92.2999573  45.2191305  29.5978427
  93.7576008  45.3551006  29.2134571  30.6082726  68.3336735  47.3227119
  31.2556434  67.9582262  46.7259026  30.0380397  67.5993204  47.5502872
  22.7851391  79.3920565  56.4684582  22.2327042  79.3638754  55.6872702
  23.0179667  78.4778166  56.6302681 106.1353779  22.1092319  67.4308729
 106.0030556  21.7336011  68.3012867 105.3880310  21.7985654  66.9197989
  52.2299623  87.7068806  71.4873886  51.8781757  87.1505165  72.1823311
  52.7792454  88.3433151  71.9450665   0.2709629  97.7026844  42.0405245
   0.6465299  96.8237495  41.9889545   0.5401324  98.1263542  41.2254906
  31.0311985  62.0453453  82.7149677  31.4578319  61.3198996  83.1709766
  31.3005495  62.8250170  83.2005692 106.8841171  76.1574173  56.6359663
 106.1663818  75.8121967  57.1669197 107.6618862  76.0450506  57.1824932
  14.4992363  71.9029713  76.9269943  14.0105259  71.0818243  76.8712521
  15.3476691  71.7041063  76.5309572  35.4681420   2.4842387  83.5351181
  36.2963581   2.2136208  83.9314175  34.8216486   1.8750393  83.8917065
  63.3054066  13.5051000  67.0825291  64.0390825  14.0975380  66.9183159
  62.6470041  14.0522003  67.5108099  54.0878057  28.1132317  68.8295889
  54.9776649  27.8257585  69.0338898  53.5243750  27.5183344  69.3244314
  33.1914759  95.6271744  63.7887859  32.8307652  95.1516533  64.5371199
  32.6214981  95.3903103  63.0571747  97.5370312   4.9676591  65.7662821
  97.4072742   4.9371547  66.7141581  98.4769630   4.8301083  65.6486607
  20.6802726  89.0731335  67.9633856  21.3346696  88.9223289  68.6454773
  20.2294946  88.2334518  67.8741121  50.3716564  41.1967516  70.3356361
  49.5873308  41.3740396  70.8549023  50.0370550  40.9407425  69.4761419
  20.5528879  87.3636818  39.4149089  21.5023065  87.2420216  39.4090486
  20.1979303  86.4759064  39.4605255  31.4901590  70.7076645  60.6025934
  31.0362244  70.9118319  59.7849798  31.0251307  71.2150049  61.2678623
  19.4203579 102.5043583  59.3491364  19.7236443 102.1414185  60.1813173
  19.4551229 103.4526730  59.4745588 110.6358147  91.5164185  69.9793100
 110.7305241  90.6074524  70.2639866 111.5081787  91.7634201  69.6723890
  31.8126416  70.3562975  72.3853636  31.8675971  70.8685303  73.1921005
  31.9401693  69.4505787  72.6675749  89.5541096  24.8870063  69.0900660
  90.0649548  25.6876183  68.9705229  89.1141033  24.7559929  68.2501507
  48.9045143   8.4594178  90.8642197  48.5105038   7.9773343  90.1371861
  48.2222843   8.4804970  91.5353012   5.1483601  85.1671410  85.8007526
   5.2856684  85.4041386  84.8835754   5.1344055  84.2100430  85.8013058
  35.7549977   7.6517451  67.1551132  36.6862249   7.7759767  66.9717741
  35.3297615   7.7340901  66.3015175  71.2911797   0.8420190  70.9624386
  71.2532043  -0.0826239  71.2070322  71.6719866   1.2762435  71.7257690
  49.8823214  26.4220428  79.2503452  50.6848669  26.4415503  78.7290287
  50.1073599  26.8906188  80.0541019   5.7140321 101.6283989  91.2192249
   6.1768520 101.3139057  91.9958305   4.8205280 101.7902279  91.5220356
  40.5937624  42.8107214   1.0152982  40.1792049  42.1606636   1.5825689
  40.7461548  43.5640717   1.5858063  46.8785048  20.8321023  63.8850212
  47.1192408  20.0676131  63.3617258  47.1175241  21.5810418  63.3389473
  73.2322836  13.2966876  70.6094217  73.4586334  13.5662627  69.7192955
  72.2985649  13.0902672  70.5670309  59.1214561   8.1187350  71.0607338
  58.5314703   7.6336002  70.4838467  59.8821449   8.3160526  70.5142450
  62.9584026  13.6417568  43.9966440  62.8225517  14.5235372  43.6498880
  62.5634146  13.6636674  44.8682737 101.3524151  43.2296562  12.3163021
 100.5740547  42.6783895  12.2356439 101.8550968  42.8317738  13.0270922
  62.2367382  29.7606897  74.2435217  63.0192280  30.2352595  73.9629316
  62.3731518  28.8668871  73.9292860   6.1139649  98.1067467  39.4847846
   6.0640061  98.4729862  38.6018372   6.0112858  98.8621712  40.0635958
  66.2999344  29.2814589  80.7347012  66.3641691  29.3667722  81.6859245
  65.4187489  29.5912075  80.5254078  65.4730701   5.3576529  85.9009266
  65.1275349   4.5923010  85.4414940  66.3734770   5.4393995  85.5865669
  38.3452487   5.6300163  85.0937653  38.9920020   6.0112894  84.4999886
  38.4474897   4.6846220  84.9841881  70.3920269   8.9967310  86.5647507
  71.3090086   8.7637240  86.7099380  69.8977518   8.2622552  86.9287109
 100.2814484  98.7355042  89.9855709  99.8776722  97.8682899  89.9518204
 100.6606770  98.8571739  89.1151619   3.7920672  83.3171272  63.6533165
   3.6000711  84.1798782  64.0207863   4.1196319  83.4994221  62.7725792
  77.2347689   0.7412961  45.3925037  77.0901775   1.1011682  46.2676144
  77.3552370   1.5096182  44.8344707 102.9651165  59.5745707   3.1297714
 103.5109520  58.7920141   3.0529013 102.9655170  59.7758865   4.0655610
 108.1912231 101.2963867  60.4259777 109.0692043 101.6174316  60.6316996
 108.3332062 100.4145908  60.0817251  32.2383928  12.3729777  67.2346258
  32.8633428  11.6709697  67.0533752  32.3547697  12.5627995  68.1655693
  87.6673126  28.4469199   8.4408414  87.9282570  28.0362844   7.6165116
  86.7202663  28.3150363   8.4848708 101.0229452  58.7247346   0.3486141
 101.3100965  59.2220924   1.1143860 101.6964634  58.0546818   0.2318558
  72.3350763  65.3094006  12.0365918  73.2210350  65.6654978  11.9694531
  71.8960333  65.6077290  11.2400568  32.9213071  80.5569744  57.7529812
  32.5088334  81.3094902  57.3289347  33.1522608  79.9722004  57.0312309
 100.8501148  72.3871660  64.9127197 100.2350044  71.9573212  65.5069542
 101.2719822  71.6676283  64.4431162 112.2787762  21.6085744  11.8842435
 112.7884865  21.5129948  12.6887846 111.4063454  21.2887073  12.1140087
  25.4567671  16.4996135  54.3655300  24.7030425  16.6182923  54.9434948
  26.0927248  17.1494126  54.6647787  74.3664122   3.2006878  60.0975370
  73.4287977   3.0914608  60.2562332  74.5074844   2.8256154  59.2282534
  24.2757797  95.9655190  86.9670486  23.3660030  95.7738304  86.7394543
  24.7349072  95.9795094  86.1272621  99.8155594  70.8905458  67.1360350
  99.7439480  71.6541576  67.7087450  99.3343544  70.2015400  67.5942278
  64.4972706  14.7148585  29.6667957  63.8999701  15.2006602  29.0980601
  64.4517994  13.8135338  29.3477678  36.6846824  81.8486214  53.8933325
  36.8368363  80.9823990  54.2711401  35.7731700  82.0468235  54.1080284
  84.6605968  34.3219900  90.6279182  85.0145340  34.9132180  89.9635410
  85.2141094  33.5428834  90.5745506  90.4294777  76.8307209  77.6156664
  89.7187519  76.2020683  77.7418041  90.0180340  77.5711012  77.1698236
 104.9664879  79.8559666  51.0340118 104.9743938  79.5900488  50.1145220
 105.7811832  80.3451538  51.1488771  11.7793560  87.3057938  76.2819624
  12.4085283  88.0236340  76.2106800  12.1939540  86.6822433  76.8782187
  20.1959634  76.5150738  66.8604088  19.3390334  76.8989801  66.6746140
  19.9976301  75.6606388  67.2435999  95.7106495  49.6801329  22.7352834
  95.5089664  48.8549519  22.2941089  96.4475155  50.0413132  22.2425222
   3.1036314  96.8703270  89.6163845   3.1350988  95.9211349  89.7358513
   3.9799678  97.1711636  89.8567200  80.2874851   3.1223068  63.2620382
  81.1693764   3.1557930  62.8913927  79.7208309   2.9300225  62.5149345
  68.4012651  19.8220074  39.5779872  67.5788212  19.3470943  39.4585299
  68.2180929  20.4450941  40.2811527  30.7533193 102.8804493  67.6269102
  30.4958367 103.7952518  67.5126314  30.7095098 102.5075150  66.7464352
   9.9783838  12.2521579   3.0999815   9.0678549  11.9711375   3.0094525
  10.2465653  11.9227159   3.9577568  87.2943020  87.8878117  77.3199415
  87.7646637  88.7214565  77.3244333  87.9421139  87.2488976  77.0227003
  72.9544115  85.2108097  54.4742107  72.1670103  85.7298470  54.6380186
  73.2268858  84.9089813  55.3407478  68.4427118  10.0297904  79.1651487
  68.9253378   9.2241329  79.3501282  68.7153101  10.2746189  78.2808495
  31.5911341  85.5661869  19.4087994  32.5019598  85.2834129  19.4904459
  31.6345000  86.3647938  18.8829005  51.3228893  79.0455008  69.3060160
  52.0059347  79.6199179  69.6520233  51.7819262  78.2363939  69.0804815
  65.3285265   1.5619318  52.3753405  65.0353432   2.3522478  52.8288603
  64.7924137   0.8606017  52.7454138   0.3448186  87.2081382  91.8464901
   0.6527886  86.7084153  91.0904058  -0.4803767  86.7889912  92.0906189
  29.7504282  94.2421532  72.8181362  29.8976350  95.1442909  72.5340462
  30.6237292  93.8505936  72.8342438  20.1392984  94.0752220  29.0037751
  21.0214686  94.3488789  29.2550063  20.1085091  94.2066765  28.0561447
   4.2168409  92.1952820  62.8941822   4.4297034  93.0859756  63.1727123
   4.9814653  91.9119072  62.3929024  67.5008011  13.2603395  87.3763847
  66.8148422  12.6404977  87.6243496  67.6602364  13.7712443  88.1699753
  66.7304087  31.0787129  86.4441013  67.2728109  30.2910948  86.4851475
  67.3002052  31.7418885  86.0545349 112.0176983  82.3868275  34.1325450
 112.1679974  81.5426826  33.7070394 111.6147423  82.9286480  33.4541035
  15.4877830 101.8183994  79.4366884  15.0621080 101.0349464  79.0885067
  15.8931184 101.5277195  80.2536583   8.0166340  75.9930182  81.2919998
   8.1089008  75.7233715  80.3782082   8.8199353  76.4780617  81.4808655
  60.0060844  81.4339638  87.8161240  60.5276060  80.8687019  88.3859825
  60.4641724  82.2743416  87.8281879  97.0424652   5.0373054  47.2011614
  96.2566280   4.6443340  46.8213367  96.7226505   5.5293149  47.9573917
   6.6203022  45.9785700  13.3542168   5.8668172  46.0370588  12.7667880
   7.3285007  45.6457043  12.8029573  16.5258896  92.3217678  56.0847425
  17.2391510  92.8620338  55.7447433  15.8938122  92.2802734  55.3671122
  38.1386209 100.6706715  85.7347012  39.0949297 100.6602478  85.7746410
  37.9389071 100.7791710  84.8048687  70.2540064 103.0983925  78.3360672
  70.0580549 103.5922432  79.1322756  70.5624104 102.2487354  78.6510324
  23.8531137  94.9090481  78.8581800  23.3060980  95.4022694  78.2468462
  23.2512665  94.6340084  79.5498228  79.1045570  13.6293554  49.9384117
  78.3450174  14.2058432  50.0220442  79.8577881  14.2189646  49.9736118
  24.5243597  81.9949436  68.0920124  25.4614854  81.8083286  68.1486273
  24.3581033  82.1045399  67.1557570   1.3359164  77.4245358  56.2079000
   0.9895766  77.4283457  55.3155613   2.0391521  78.0737782  56.1946487
  11.1797726  88.6637115  57.8053093  11.7299664  87.8877354  57.6986265
  11.7736852  89.4002151  57.6601887 110.0677681  90.7894421  66.3122940
 109.2789555  91.0154819  66.8051577 110.3271294  91.6069603  65.8872986
  19.6812081  50.0458479  56.3048410  20.5042624  49.6847677  56.6341352
  19.1863739  50.2712584  57.0925951  52.5991964  84.8256207  69.1620064
  52.2368908  85.4021835  68.4892893  53.2671356  84.3144989  68.7050152
  31.7450833   8.5038191  67.5773382  31.0732555   8.8605934  66.9963121
  32.0021582   7.6778758  67.1675014  54.0362644  11.2318313  87.7687550
  54.6938705  11.1245370  88.4559727  54.0382147  10.3957331  87.3027420
  68.1869984  97.2045135  66.1958075  68.1559229  97.8416252  65.4821157
  69.0745449  96.8478394  66.1599970  23.0933094  99.2393684  64.5802593
  23.5286403  99.8215008  63.9574957  22.9587650  99.7793293  65.3590822
  79.5364094  16.0223591   5.0445729  78.8923788  16.1280739   4.3443733
  79.1837311  16.5328383   5.7734507  30.1563764   1.3945967  77.9966307
  29.6916032   1.4861920  78.8283920  31.0719371   1.2696382  78.2463598
  81.3725185  52.9609871  17.8709340  82.1116257  52.4610376  18.2173491
  81.7617226  53.7769270  17.5562978  92.7222919  22.5975347  84.2601871
  93.4921074  22.4230003  84.8016167  92.9547596  23.3785462  83.7579823
  66.0235929  61.6457367   4.5146653  66.5664244  62.3937464   4.7637540
  65.3030634  62.0287514   4.0143004   5.1781070 101.4394093  74.1691875
   6.0821915 101.6732597  73.9590120   4.8537549 101.0043335  73.3806801
 106.1821270  98.7312984  72.5304985 105.9825230  97.8245544  72.7633190
 107.1154118  98.7241364  72.3180151  26.5373182   8.6590034  60.5433321
  25.6082916   8.8892931  60.5330276  26.9872689   9.4863117  60.7146120
  14.1197109  86.2856770  17.2889876  14.8751760  86.7382240  16.9138741
  13.5780025  86.9855881  17.6535606  16.8289649  97.9156971  72.6328039
  16.9399226  96.9703770  72.7342796  17.6738024  98.2219982  72.3031664
  94.8148155  36.0429740   1.3104293  94.3010616  36.8440819   1.4130022
  95.7235813  36.3426471   1.2865104  32.2993588  56.3077879  50.3866291
  33.1595349  55.9587383  50.1531887  31.8008471  56.2823248  49.5698833
  24.4771314  99.4695950  49.8490047  23.8647389  99.2248726  50.5427742
  24.6325326 100.4041958  49.9853992   7.2454304  29.1974211  91.8620968
   7.9321396  29.8472762  91.7125893   7.4358714  28.4992528  91.2355804
  80.7227612  27.8413939  72.9832315  81.3009548  28.2094479  73.6514044
  79.9665833  27.5176954  73.4727716  86.4236546  65.5360937   8.5136294
  85.7631493  65.8494902   9.1314858  87.2289085  65.9811497   8.7776685
   4.8190758  95.6802845  67.9811668   4.2266691  94.9917412  67.6791954
   4.6840006  95.7141399  68.9281845  50.2187729   2.0223562  51.5130901
  51.0411644   2.4736178  51.7035246  50.4193115   1.0951038  51.6404486
  63.2028151  17.6555300  64.9657774  62.7981234  17.9484737  65.7822561
  62.4659920  17.3936796  64.4137239  25.0453830  51.4927721  71.8339872
  24.4092035  51.2501955  71.1611843  25.3744864  50.6570435  72.1648693
  39.1374373  91.7553902  36.8919659  39.6074486  91.7332840  36.0583997
  38.2499385  91.4705658  36.6741323  30.2017426  68.8015938  55.5230761
  29.4471812  69.0026283  56.0766554  29.8360348  68.3057690  54.7905111
  52.5762606  10.2951968  73.5743952  52.3423052   9.6328026  74.2245722
  53.4496117  10.5881631  73.8345146   5.4470789  96.1722469  73.0423403
   4.5774433  96.3376713  73.4064817   6.0389614  96.2510395  73.7904692
  93.5154152  59.2140484  10.4187250  93.3199596  59.9979210  10.9321153
  93.1843185  58.4905291  10.9508193  69.7645330   4.9081704  68.2591581
  70.2147198   4.1069624  67.9915190  70.2566814   5.6120211  67.8365231
  49.1912794   9.1006756  56.0548115  49.0483809   9.3825901  56.9583225
  48.3120728   8.9400566  55.7121277  52.6879501  92.3118973  71.7939615
  52.6022673  93.1036091  71.2628460  53.4194756  91.8369389  71.3996029
  17.4875033  72.0761251  86.5486526  17.2891712  72.3023129  87.4573517
  17.3933017  71.1242485  86.5127277  68.9266491  22.2595978  56.4165545
  69.2541742  21.3886571  56.6411066  68.0670881  22.3074722  56.8349981
  88.3989239  99.9766541  89.4875813  88.5160446  99.0699673  89.2039776
  87.5231361  99.9956989  89.8734093  15.3486896  55.1954412  58.5258961
  15.6703365  54.4655228  59.0550423  14.6556234  54.8136520  57.9872608
  11.5510273  74.8331261  77.9744101  10.6024158  74.8604536  77.8494215
  11.9104075  75.1755857  77.1560001 106.2596512  86.9097519   2.3653308
 106.9513035  86.4286995   1.9109818 105.8400249  87.4300957   1.6802076
  85.1877117  80.5348396  73.5438490  84.8184681  79.8143196  74.0544748
  84.4504166  80.8687019  73.0328131  86.6464233 101.2920094  67.5658131
  85.7856560 100.9592724  67.3116827  86.5769005 102.2409153  67.4610138
  65.4809666  23.3524513  62.5742102  65.6760836  22.5316358  63.0263376
  64.5292139  23.3493686  62.4722815   5.7525063  82.7011681  84.5727158
   5.0010103  82.9097939  84.0177727   5.6365776  81.7775345  84.7955990
  41.6718960  99.4993496  56.5151596  41.6563129  99.0986443  55.6460094
  42.3702288 100.1521111  56.4654732  87.9099560   4.5565167  21.8548250
  87.4370575   3.7308115  21.9587708  88.4937000   4.4062400  21.1112618
  17.5057638  81.4187527  64.9695539  18.4095848  81.1541271  64.7983456
  17.4430358  82.3035717  64.6098661  25.7498813  75.3143501  57.6862812
  26.3411379  76.0392809  57.4834967  26.1403203  74.5574427  57.2493839
  57.0560360  88.6783218  56.0733175  57.1308947  88.0545139  55.3511715
  56.7323160  88.1567574  56.8077660  42.0206070  96.8412876  57.7540684
  42.2108746  96.4200497  56.9158649  42.3846769  97.7223015  57.6674700
  86.4393806  10.3372693  39.6307135  86.8562794   9.8666644  40.3524828
  86.5884972  11.2616205  39.8296356  96.1953449  58.1893539   4.3422195
  96.2112141  58.8954401   4.9883020  96.1199951  58.6373091   3.4996679
  61.8970346  11.8070698  58.5835075  62.3977041  12.5914156  58.3590841
  62.4207401  11.0825777  58.2413435  60.1208496  99.6487999  80.2312469
  59.4450188  99.3343353  79.6307564  60.2108526  98.9490700  80.8781719
  72.8406048   4.8320636  73.7457943  73.3864450   5.4742932  73.2921028
  72.7262020   4.1242999  73.1115913  63.1949949   4.2480981  66.9877005
  62.8409052   4.8800075  67.6134348  62.5323629   3.5588208  66.9424248
   5.8523571 102.6088238  67.9631758   5.9389317 103.1624126  68.7392426
   6.6806960 102.7194595  67.4964380  51.3565350   4.7242889  78.4575367
  50.8850527   4.2562708  79.1466665  51.8710661   4.0477118  78.0173874
  41.9269276  96.2492847  88.9707184  42.7653360  96.2522984  88.5088825
  41.7562294  95.3248787  89.1512108  67.7482939   7.2248435  66.0688257
  67.7490902   8.1787169  66.1485577  67.1553326   7.0459962  65.3389978
   8.5099107 101.8653011  64.6337986   8.6997581 102.2189140  65.5027914
   9.1322535 101.1459541  64.5267296  56.1787701  90.3995323  28.7745190
  56.0700512  91.3421154  28.6482763  56.8089104  90.3249645  29.4911742
  68.0596638  73.7923098  83.5527325  67.4888706  74.1118908  84.2515087
  68.9412260  73.8410187  83.9224625  81.3149834   4.9692982  37.4768066
  81.4377785   4.8908481  38.4228516  81.1873436   4.0694612  37.1764183
 105.1312065   9.8271483  71.8042517 104.4462204   9.2552787  71.4578533
 105.5622005  10.1826072  71.0269976  49.7072649   8.0160016  45.3176928
  49.0872049   8.7363893  45.2045727  49.2273569   7.2394645  45.0297594
  95.3037262  77.3804283  -0.0984974  95.4836845  78.3056545   0.0682293
  94.4411945  77.2306490   0.2885943  42.8205156  90.9406090  88.1691265
  42.8457785  91.5964508  88.8658810  41.8973494  90.6962967  88.1035328
  30.5025148  90.7146835  57.7649260  31.1404943  91.0642815  58.3870173
  31.0146880  90.1443958  57.1916199  62.8058577  77.5176573  47.0348549
  62.1348190  77.3727894  46.3678074  62.5649929  78.3508110  47.4399137
  47.8968525   0.5929548  79.0573454  47.0586824   0.1594452  79.2178917
  47.6610088   1.4285889  78.6544514  39.5838189  56.9575548  50.9739733
  40.1398134  56.2723875  50.6029606  39.1958165  56.5562487  51.7515612
  73.4614611  66.8624163   9.2581743  73.8110113  66.6950941   8.3829308
  72.9561806  67.6699066   9.1639501   1.7172408  25.3992295  50.2954865
   1.0622594  24.9771476  50.8514357   1.5453349  25.0548148  49.4190979
  75.5099583  17.7261579  73.9794683  76.2767696  17.4792969  74.4964743
  75.1028919  18.4346271  74.4780684  23.1924295  17.0557308  55.4288244
  23.0125237  17.9314077  55.0866890  22.4503469  16.8657160  56.0027933
  66.7420864  10.8437169  73.4680414  66.4353895  10.0365770  73.0548906
  66.9906855  11.4080346  72.7359343  19.8360693  82.4175739  44.2633390
  19.7780502  81.6338730  44.8098564  20.0882387  83.1141472  44.8694944
 111.2103748 100.0564861  69.4933128 110.7814312 100.0660896  70.3489685
 110.5035877 100.2213764  68.8692093  52.1614790  10.3130031  79.7940874
  52.2956848   9.3736374  79.6683407  52.9433823  10.6061351  80.2619934
  69.7877502   5.7450932  61.5130758  69.2346907   5.7571882  62.2942352
  70.6729841   5.6034422  61.8485308  29.5069098  22.7300334  82.4270058
  30.1775694  22.4451637  81.8062878  29.6235919  23.6781812  82.4872780
  95.5167198   6.5740162  58.0192804  94.7592735   6.4905870  57.4400091
  95.3584957   5.9348309  58.7140036  30.2761197 105.3131676  49.4853401
  30.3174043 106.1168957  50.0035477  29.7256160 104.7237873  50.0009060
  56.7474651  93.5787773  41.4781046  56.9419670  94.0810204  40.6868029
  56.2013149  94.1628170  42.0042706 103.7845802  17.0902550  48.3972645
 103.7808704  16.1649776  48.6423731 102.9619026  17.4336636  48.7458420
  38.4517503 104.4100094  44.7258520  37.9804564 104.3696976  43.8936901
  38.7003088 105.3299713  44.8160124  52.9884338   6.4779490  41.1246014
  53.7225819   6.1722529  41.6573429  53.1980371   7.3913193  40.9295273
 106.7881584  15.8550477  53.1948709 107.2788525  15.3544831  52.5430441
 107.4413300  16.0997391  53.8503981  82.4938297  17.1090448  65.1882219
  81.6072845  16.9250071  64.8777485  82.6778126  16.4099848  65.8156729
  48.2061625   9.5493424  38.7099361  47.7323818  10.1031291  39.3304873
  48.8778210   9.1180199  39.2382073  77.7620363  32.1450663  72.0265865
  76.9226313  32.5268245  72.2832727  78.4074736  32.5998807  72.5676823
  20.7494283  97.9392433  57.7271509  21.6172266  98.1415176  57.3775148
  20.3601456  97.3535442  57.0778084  28.9267159  90.5244923  79.3257666
  28.9509630  91.4506626  79.5662880  29.0805054  90.5182743  78.3810234
  10.1925874  57.8747320   9.9534339  10.3670633  58.7450266  10.3117335
  10.8375216  57.3078537  10.3764474  25.9077954  80.8594990  47.7699375
  26.0184526  80.7365799  48.7127399  25.8030629  79.9733496  47.4235249
  29.6060896  45.8012486  30.2255440  28.9801550  45.3848600  30.8180451
  30.2578545  45.1225185  30.0501609  57.7895355  21.4319205  49.1398716
  56.9671679  21.8848443  49.3264198  57.5276136  20.5340719  48.9361572
  25.8741236  74.1307735  90.2749348  26.7075181  74.5521736  90.4849434
  26.1214352  73.3007145  89.8674107  18.0656767  67.8916407  64.1248226
  18.0658531  68.2803822  64.9995279  18.9138675  68.1354523  63.7541962
  41.7058039  82.9426003  89.0406799  41.0495186  83.3094120  88.4482574
  42.2599792  82.4011993  88.4785366  69.0208864   0.8132982  34.3816757
  69.6756411   0.2195206  34.0143085  68.6510086   1.2619615  33.6213326
  13.1183505 105.1768494  58.1569576  12.3242259 105.1926041  57.6227760
  12.8000557 105.1133537  59.0574503  89.2905140   3.7785229  60.7550907
  88.8198090   4.5725307  60.5016708  90.1691151   3.8952655  60.3936100
  66.8430996  54.2627573   4.4275367  66.3535309  53.4478045   4.5388901
  66.5442848  54.6086693   3.5865346  86.8080044  40.0082636  90.1380730
  86.1622620  39.3306994  89.9377060  86.2887955  40.7486773  90.4518318
  53.8183022   7.0649385  55.3970146  53.2530737   7.8118587  55.1998854
  54.5323467   7.1310115  54.7629786  96.6729069  64.8561382  43.3895206
  96.1827850  64.2371798  43.9307308  97.4386501  65.0819397  43.9176035
  40.7225275  75.5565548  70.7970953  39.9682331  76.1445713  70.8359909
  41.2517023  75.7951403  71.5581989   8.1285602  70.3929472  74.7990990
   8.7170452  70.1083946  75.4983473   7.2533256  70.3270388  75.1810026
  34.5086336  82.6841927  47.0803738  33.5841870  82.9111290  47.1810341
  34.5442772  81.7431355  47.2517109  36.4947414 105.3356075  38.7737918
  35.9099746 104.6999454  38.3612180  36.7341995 105.9348392  38.0668211
   8.5251456  24.1341639  68.9741230   8.9559424  23.7873983  68.1928396
   9.0912575  24.8503852  69.2618275 106.2358665  32.4336696  61.1176109
 105.8341694  32.6527834  61.9583559 106.6533089  31.5850830  61.2655258
   2.2291319  46.0014439  57.7202845   1.3515881  46.0461235  58.0999565
   2.0807773  45.7914114  56.7982674 109.9173069  44.7067261  51.3117313
 109.3021202  43.9827633  51.1949015 110.6231308  44.3379211  51.8427992
 100.5264187  73.6524343  23.7537241 100.3956699  72.7328539  23.5223889
 100.3157997  73.6970615  24.6863985 112.3339367  50.5569649  51.0829496
 112.7215862  49.6886730  51.1926365 111.4106464  50.3853989  50.8976507
  76.6708946  64.3974829  25.5202007  77.0978975  63.8768482  26.2005234
  77.3458242  65.0104380  25.2286720  24.7868681  51.8350029  76.3740778
  24.3586040  51.9580078  75.5269146  25.4352617  51.1485481  76.2172508
   3.0183592  41.8208313  62.8767252   2.7831495  42.4635029  62.2074890
   3.9744279  41.7841721  62.8480721  15.5138028  44.0281582  62.7763557
  15.3218937  44.4529343  63.6123991  16.4392912  43.7909794  62.8350830
  96.5901470  70.4977179  55.4343367  96.3318634  71.1254883  56.1091852
  97.1068192  71.0119629  54.8139858  92.7731514  29.8811126  58.2905149
  92.1225929  29.2343831  58.5638952  92.2724152  30.5307198  57.7970505
  88.9918041  58.8781786  60.6107664  89.5646572  58.4908247  59.9489307
  89.2330647  59.8043871  60.6239080 100.8124352  19.4230926  69.8448133
 101.1423683  19.9791145  69.1389656 101.0885525  18.5392177  69.6024179
 108.4505081  30.3567839  83.9182472 107.6741219  30.7660103  84.3003368
 108.5255146  29.5165396  84.3705750   2.2032681   5.2247334  70.4889536
   1.9816560   5.0711185  69.5705175   2.7655131   4.4873035  70.7262468
  21.2420702  35.1665926  66.0682344  20.4967594  34.7122359  65.6754160
  21.1951661  34.9442196  66.9980621  33.7100863  63.9052057  40.1701212
  34.2932677  64.5685101  39.8011255  34.1496849  63.0738401  39.9917483
  51.5797997  44.1877460  55.0259018  51.8846512  43.5807276  54.3514919
  52.0456219  45.0035143  54.8421574  37.5220728  38.7026978  62.3745823
  37.5697279  39.6328759  62.1538353  37.2447634  38.2778120  61.5629148
  32.5358462  60.7073116  62.0757866  32.5104237  60.3454685  61.1899757
  33.4633803  60.6973982  62.3120308  98.0958652  36.4634824  64.7654533
  98.9672089  36.1756659  65.0377655  97.5186253  36.1852384  65.4765177
   3.0696172  48.8580275  32.2681594   3.1222066  49.5367575  31.5952611
   2.3610809  49.1458464  32.8438044   9.3933040  34.8436451  51.1265898
   9.8986268  34.9584413  51.9313908   8.4996891  35.0873232  51.3680553
 102.3686886  70.8215952  41.8328285 103.3094788  70.8028650  42.0083141
 102.0439529  69.9901915  42.1785736  96.8863201  75.2987099  73.8899422
  97.4838924  75.9960508  73.6200333  96.0149384  75.6366777  73.6833048
  22.7014208  38.9677143  51.4840031  22.2852802  39.7556710  51.1344528
  22.9546642  39.2061114  52.3757792  96.5929604  34.8748541  71.6544628
  96.0520172  35.5437684  71.2347412  97.0990372  34.4917965  70.9379530
  17.2809625  48.3917618  78.8288736  16.3469577  48.3324718  78.6279964
  17.6236224  49.0187025  78.1918812 102.8525734  37.4513292  65.5037737
 103.5581112  37.5675964  64.8674202 102.5019360  38.3320904  65.6362104
  58.2463598  96.2451172  41.7977858  59.1363192  95.9045219  41.8883324
  58.0491304  96.6299152  42.6517534  96.2902737  43.1483984  11.4848340
  96.5971947  44.0070820  11.7758477  95.4315186  43.0490685  11.8958223
 109.2021847  50.1830196  17.4885023 109.0314674  49.9377155  16.5791535
 108.3334255  50.2604580  17.8828239  47.9613447  74.0883017  47.1639395
  47.6343584  74.1512394  48.0613518  47.1728611  74.0875053  46.6212320
   4.1114026  36.7339706  67.7109003   4.2373136  36.1418557  66.9694328
   3.1712911  36.6998553  67.8877020   2.5323442   4.9168217  27.0118499
   2.1770817   4.6154454  27.8480268   2.4282266   5.8680290  27.0362711
   1.3754784  29.4163728  41.3813925   1.7995301  30.1721025  40.9748411
   0.8409913  29.7898912  42.0821333   6.3512790  77.6722336  32.6647115
   6.0335249  78.1935740  33.4019136   6.1095583  76.7727852  32.8856182
   4.0050748  31.6635418  55.3359985   3.8006979  30.8985186  55.8737707
   3.1668460  32.1137714  55.2316046  86.5969372  14.2452073  62.0510530
  85.7214642  14.2281497  62.4377012  86.5543270  14.9382710  61.3922071
 100.4333305  49.7490025  27.0282388  99.7827339  50.4402208  26.9050241
 100.5997181  49.4166899  26.1461306  39.0684819  50.1932478  36.3710117
  39.9394560  49.7993612  36.4209056  38.4776521  49.4519901  36.2380314
  55.5139637  29.0716553  85.6434536  56.1660194  29.6238852  85.2120590
  56.0211372  28.5300064  86.2481213 100.2982903  49.4801998  66.5923119
  99.7255611  49.6667719  65.8484030 101.0114670  50.1133537  66.5102243
  99.2374039  36.1437130  58.8425398  99.6934414  36.9703054  59.0006542
  99.9369431  35.4945493  58.7686253 109.6762371  52.6798010  42.5712538
 110.0477028  53.4999037  42.2461843 108.8343811  52.9319429  42.9506397
  95.8480930  23.4718299  57.6234436  96.3976002  22.7472949  57.9223204
  96.2285233  23.7305140  56.7840433   9.0461773  53.9962769  42.1961451
   8.2182419  54.1446304  41.7392540   9.4541955  54.8610830  42.2393560
  48.3711958  27.2055745  37.4632502  48.7580490  26.9030786  36.6416192
  48.8355589  26.7150879  38.1414986 110.8246136  57.2107077  55.9389830
 110.0981140  56.7564011  55.5123234 111.3960171  57.4777746  55.2189827
  98.7452507  69.5756149  84.4238853  99.4347954  68.9242220  84.2956066
  99.2132473  70.3763294  84.6606827  14.0001392  48.7054253  71.8723726
  13.3436394  48.6475515  71.1781931  13.9182949  49.5990372  72.2055340
  51.7577648  86.0539150  56.5039206  51.2688017  86.8765831  56.5233421
  52.2537708  86.0893631  55.6860256 100.2689648  52.1788645  55.6350756
 100.0937271  51.9776726  56.5543365  99.5860100  52.8040648  55.3923130
  19.0578377  45.0788164  70.7742834  18.1732941  45.3680658  70.5503416
  19.0356827  44.9528933  71.7229033 110.5155563  15.3664422  71.8581009
 110.1468086  16.0997868  72.3505020 109.7905827  14.7474682  71.7714262
 103.2599258  64.8859787  43.8120413 103.3331394  65.8316851  43.9405298
 103.7723351  64.5068645  44.5261431  21.6196156  38.8771009   7.1999168
  22.2072554  38.1367803   7.0488113  20.9355640  38.7789917   6.5375876
   3.3650655  22.1681213  61.1539459   4.0330687  22.8253531  61.3490105
   3.8459927  21.4552784  60.7334757   3.4237328  25.4640126  81.6152668
   3.6297813  24.5650840  81.3589382   3.8421524  26.0057449  80.9461784
   7.9971790  18.9689529  26.4031506   7.6632166  18.2158589  26.8905425
   7.2804689  19.2118716  25.8170199  22.9760575  36.2851524  58.1980705
  23.6263251  36.0359192  58.8547802  23.3297420  37.0809507  57.8007698
 109.1733932  76.0054255  58.3259821 109.1221142  75.6144190  59.1981697
 109.7617912  76.7528296  58.4327793   1.2517747  11.3406074  46.9798899
   0.9537066  11.4602625  47.8815937   0.6509610  10.6919754  46.6131020
 107.4265671  36.6211748  63.8858938 108.3158016  36.9682455  63.9568138
 106.9418907  37.0594811  64.5853329   7.9524368  30.7361722  32.7136683
   7.8749353  29.7893238  32.5966072   8.8294780  30.8617234  33.0759764
  85.2905655  18.1666732  27.4535656  85.2687359  17.2813058  27.8167200
  85.6880569  18.6985970  28.1429791 109.2303085  48.8529301  66.4227390
 108.2888794  48.9706612  66.5495825 109.6325493  49.3709135  67.1199656
   3.0742988  45.3768492  14.0350938   2.9974535  45.7990980  13.1795025
   3.3745933  46.0728645  14.6195722   8.4940618  63.4536409  39.3228889
   9.3620253  63.0546188  39.3833017   8.6509562  64.3088722  38.9226437
  77.9223633 103.8548756  49.0424347  77.6389599 103.6788750  49.9396133
  78.6716938 104.4426155  49.1388988   7.9292947  39.3379569  58.6979294
   7.4178088  39.3193412  57.8890610   7.4442595  38.7747216  59.3010378
  11.7209935  41.2379885  53.9141607  12.3362625  41.0719347  54.6283722
  11.1572564  40.4645538  53.8989782 110.5556011  43.0233765  86.7061043
 110.6597519  42.1868324  86.2526894 111.4014149  43.4592199  86.6018867
  91.0387516  63.8046455  63.8692856  90.4510593  63.9262056  63.1235838
  91.3716602  64.6821499  64.0574121  19.5988047  36.3418508  41.7782402
  18.6928535  36.4341021  42.0731544  19.5280159  36.1524844  40.8426332
  95.8958817  95.7944107  89.2307854  96.6342163  95.3159618  89.6078682
  95.1393700  95.2291012  89.3867874 103.4296894  51.6479063   6.4721519
 103.0324173  52.4841166   6.7153794 103.5718155  51.7158842   5.5280066
 101.5722370  66.5430450  68.9461470 102.0549393  66.2354612  68.1789351
 101.5028191  65.7727528  69.5101213 109.6543407  73.1891537  56.2275553
 110.2199650  72.4719095  56.5136671 108.9863396  73.2542419  56.9100285
  14.1420245  73.3548498  66.5201902  14.3999720  73.9407921  67.2317839
  14.0883398  73.9216709  65.7507372  20.1503086  23.2713199  19.3264902
  20.9321094  23.6177230  19.7566354  19.4315922  23.4994006  19.9161148
  19.4754648  41.4949656  53.1082630  18.6459959  41.6926813  53.5431480
  19.6359158  40.5723810  53.3065653   8.0003601  24.2113662  83.0793476
   7.4189079  24.1262078  83.8349152   7.7990723  25.0747204  82.7183247
  44.3337154  86.8918514  24.4806457  44.4210005  86.0603714  24.9467564
  44.8219728  86.7629910  23.6674857  24.0716052  15.3234029  65.1615429
  24.4821858  14.5103502  65.4558229  23.1671286  15.2596498  65.4682779
   6.3187855  28.0984855  77.0605993   5.9411049  27.6802802  76.2868452
   7.2127199  27.7590346  77.1040201  19.0152788  33.9861727  60.4795742
  19.3515873  33.1780577  60.8669758  19.7986674  34.4751620  60.2277374
  94.9176216  51.1718702  58.2552814  94.2582321  51.7093277  58.6941147
  95.5638695  51.8005943  57.9338789  28.7792945  55.2374458  60.7146645
  29.3830824  55.4864359  61.4144373  27.9609346  55.6824875  60.9348059
  48.1765032  81.7195606  41.6547489  48.1446314  81.6690636  42.6100826
  49.1047287  81.6255188  41.4407682  35.2652192  48.1114054  70.7035780
  35.6491208  48.8549566  71.1683178  34.7696924  47.6402426  71.3734245
  12.3108017  40.2413464  74.5620537  11.4521325  40.5491352  74.2719126
  12.6542354  39.7507048  73.8153601  25.5016470  71.0102701  71.5323830
  24.7622728  70.4191399  71.3905430  25.0986004  71.8446016  71.7725420
 102.8740788  13.2595778  19.5954454 103.2839298  12.5594771  20.1034927
 102.7817535  12.8944182  18.7154639 109.4002247  84.0736389  58.8305330
 108.5828686  83.8019943  59.2481184 109.1261578  84.4733047  58.0050659
  14.8538947  32.3523903  75.0244379  14.9478090  31.6057277  75.6159687
  15.3351939  33.0598640  75.4534674  79.1319609  56.5059185  60.6430721
  79.4903326  56.7666340  61.4914989  78.4229946  55.8999634  60.8585215
   8.7102103  55.2534771  74.7476816   8.6795533  54.4210529  74.2761326
   9.4491369  55.7217550  74.3591785   0.8723051  73.4375048  33.1855130
   1.6195471  73.0072641  32.7698779   1.1508257  74.3464804  33.2969403
  96.6200733  18.5263801  50.7556391  97.0151901  19.3400693  50.4425526
  96.6926289  18.5761356  51.7087841  85.7435417   2.7856681   3.7156281
  86.6686058   2.9487631   3.8997349  85.4985237   3.4712285   3.0941749
  88.8571548  87.2655773  72.2758675  88.0454159  87.5584698  72.6900244
  89.3257809  88.0741692  72.0689726   8.9973229  86.1561108  47.8464699
   9.2294246  86.8144703  48.5013962   8.3334070  86.5816498  47.3039246
  34.6747422  40.3135586  36.8351221  33.9898276  40.3669453  36.1685848
  35.1559567  41.1366701  36.7505240  25.8498144  30.1230311  48.7793159
  25.9499574  30.5058098  49.6509171  26.6964173  29.7146893  48.5983419
  19.9331367  63.8872194  81.7906189  20.0212502  63.0252790  81.3837719
  19.4684851  63.7187719  82.6103497   4.8193532  69.0184832  65.8563471
   3.9447552  69.4069624  65.8762455   4.6920615  68.1627274  65.4468203
  98.1948280  38.4671402  10.8177292  97.4598312  38.4596229  10.2045679
  98.3368397  37.5452662  11.0326993  54.9677086  98.6270905   1.3033821
  55.9226084  98.6934090   1.3018420  54.7809219  97.8474712   0.7803791
   1.6285118  45.2389050  54.9607706   1.3745381  44.4023800  54.5709658
   2.5072154  45.4052114  54.6195126  20.3216577  81.4019680  47.7296638
  20.5901814  80.9498024  48.5294580  20.9072113  82.1570683  47.6733208
   1.3001834  95.8742523  48.0906153   1.8961334  96.5115547  47.6970196
   1.5162317  95.8883286  49.0230083   2.4098971  53.3732271  59.6676826
   2.0157835  54.0077400  60.2662611   2.4663457  53.8357544  58.8315487
  80.8528900  70.9881735  80.0247097  80.3913307  71.2992907  79.2459869
  81.7156029  70.7263136  79.7031546  17.4678946  89.9936008  75.7875729
  17.9607356  89.3604183  76.3095045  17.1933675  89.5032787  75.0126886
  47.4097157   6.2424701  80.0364876  46.7896557   6.5651196  80.6904411
  46.8641758   5.7962173  79.3888187 109.0380192  37.7826595  76.5288782
 108.0917358  37.8142762  76.3882256 109.3457603  38.6555290  76.2846851
   8.4603864 100.5967903  52.0378971   8.2947630 100.7479382  52.9684639
   9.2367637 100.0371742  52.0206022  32.9575038  48.3284616  68.2808065
  33.7396026  48.6100435  68.7554264  32.8282142  47.4191284  68.5503006
  41.4160633  33.4184074  84.6108723  41.0818863  32.6188612  85.0174236
  41.2777328  34.0982771  85.2703190 106.2875938  27.1120286  67.3087788
 106.7255116  27.7343035  67.8894949 106.3245964  26.2789726  67.7787590
  37.7883387  63.6183739  44.6995401  37.0863533  63.5513067  45.3468084
  37.3353577  63.7663984  43.8694048  16.1428082  76.8443155  49.3650913
  16.9552565  76.5984869  48.9226770  16.1530507  76.3431787  50.1805592
 102.3059273  61.9369698  52.4552727 102.4368572  62.7690506  52.0005941
 102.9690361  61.3545895  52.0846701 111.3244438  41.6120815  55.0584698
 110.5181122  41.2598467  54.6816397 111.2908745  41.3542604  55.9796858
  20.0907445  71.8149948  51.1742306  19.1964710  71.5846682  51.4261341
  20.4551959  71.0050344  50.8173418   0.2833430  69.3885088  65.4691124
  -0.2926043  69.4894075  64.7112656   1.0311598  69.9548531  65.2787066
  78.0015373  12.1726274   7.8092420  77.8335953  11.3785672   7.3018020
  78.3265257  11.8543935   8.6514658  83.5397053  26.1918354  49.1495705
  84.1283798  25.5185056  49.4906092  84.0486717  26.6327453  48.4692860
  18.7555325  21.7330241  66.1034203  18.0048490  21.8987751  65.5331278
  18.4682381  22.0251489  66.9684935  99.0058136  67.0439148  42.7348709
  98.2355595  67.5684690  42.9534578  98.8621140  66.7737961  41.8278885
 110.7769108  15.7978725  79.4163990 111.4793682  16.4448357  79.4813395
 110.6499958  15.4911864  80.3142166 103.2460785  71.5762806  81.9011307
 103.3485603  72.4784184  81.5980244 104.1171551  71.1911201  81.8056488
 106.5667915  52.6755857  40.5176401 106.3828468  53.5940504  40.3206205
 107.2003078  52.7066231  41.2345219  17.4227548  37.6043940  43.5992050
  17.6654744  36.6995788  43.7957573  18.2538199  38.0792809  43.5926390
   7.1666104  89.3360329  38.6716485   6.6910768  88.5070324  38.6181307
   7.7004188  89.3576527  37.8774118  11.5911829  62.1164560  67.4653959
  11.0327733  61.3402224  67.5086594  12.4319172  61.7891693  67.1455812
  52.3516273  78.8069630  39.7953749  51.5343094  78.3254147  39.6675563
  52.9955578  78.1326532  40.0119066  26.7475939  68.9273596  19.5481098
  26.0965967  68.6085129  18.9229894  26.4154387  68.6503792  20.4020333
  83.5417080  12.5855029  89.9189281  83.8002968  12.7262616  89.0081310
  83.2796860  11.6655350  89.9540710 101.7221546  67.3759413  60.9676647
 101.4924335  67.0828009  60.0858879 101.1153030  66.9080734  61.5413046
  22.0314336  45.0624895  52.9355574  21.3647151  44.6519089  52.3849773
  22.3511314  44.3534946  53.4935427  24.8773408  70.0665903  10.8811545
  24.3033147  69.4318199  11.3098645  24.3898106  70.3450537  10.1059091
  95.1397514  96.1161327  77.0618820  94.5342064  96.5772152  77.6423597
  94.8433399  95.2061749  77.0805025  11.8103957  67.0036554  46.2640524
  11.3741314  67.1466112  47.1039772  11.4056492  66.2090826  45.9161091
  13.9822388  89.1192913  77.0349073  13.1994212  89.5518589  77.3759556
  14.2975545  89.7035503  76.3453865  49.9956512 102.5207329  12.9923761
  49.5542765 103.3664131  13.0713344  49.4752121 102.0379639  12.3502624
 103.7150192  60.7268524  80.7016087 103.4081459  59.8492002  80.4740238
 104.2102909  61.0138321  79.9344158 105.6789970  76.9406796  42.5693607
 106.3815117  76.3729906  42.8862858 104.9378395  76.3507032  42.4320698
  13.3404267  31.1030626  58.2443476  13.9432526  31.0810137  57.5011492
  13.8730669  31.4158225  58.9755869  46.4051867 100.9649467  76.2354136
  46.6617966 101.4544582  75.4539061  46.0640621 100.1366901  75.8979654
  27.4495840  48.6030674  78.3935690  26.5696573  48.4773636  78.7487602
  27.3333669  49.2345715  77.6836872  30.1290083  33.0014420  38.9818144
  30.7477212  33.6334538  38.6157751  30.2356982  32.2200584  38.4393287
  37.3151803  53.5992718  58.8964224  37.6003909  54.2475891  59.5402956
  36.7078710  54.0753174  58.3300400   4.3013793  43.9179802  58.3262444
   4.3060476  43.0609608  57.8999472   3.4377849  44.2797375  58.1273174
  79.5289898  80.2253723  82.2462368  79.2682409  80.0563717  81.3408756
  80.1417923  79.5201874  82.4546051 109.0327835  88.3323097  57.9159260
 109.0118694  87.7960587  58.7085390 109.5050049  89.1237164  58.1745815
  85.6061268  64.7587061  76.1714029  84.8512745  65.1626492  75.7433128
  86.1367893  64.4191027  75.4507780  34.2911863  30.9834933  49.5703077
  35.0962448  31.4051557  49.2697906  33.7054563  31.7099547  49.7833967
  95.8535862  52.6188612  72.4581051  95.1684475  52.3545551  71.8441391
  95.6454945  53.5283041  72.6722288  20.6302595  21.0981631  43.3405685
  20.3619719  20.4420185  43.9837837  20.7006574  20.6129074  42.5184965
  30.7611537  33.0664992  59.4211197  31.5112948  33.6246467  59.2161942
  31.0098529  32.6183009  60.2295113  21.7555594  56.7160988  27.5080705
  22.7019477  56.8588972  27.4943328  21.4795589  56.8525934  26.6017461
  18.9027333  52.4546623  52.0967340  18.9965332  52.3204231  53.0398226
  19.1395175  53.3720779  51.9606733  16.1141396  55.8884907  68.6449432
  16.7981708  55.7849693  69.3064690  15.3205025  56.0718060  69.1477013
 111.0886955  44.8420906  65.7174110 111.8242073  44.4087601  66.1503887
 110.4043007  44.1738415  65.6817245 101.4176941  83.0513668  57.6417923
 102.1225739  83.1000519  58.2875538 101.4986897  83.8607979  57.1373272
  30.8330512  95.8255959  25.1438808  31.0578799  96.7154408  25.4156756
  29.8764849  95.8201599  25.1094699   6.3045502  24.0966535  58.8013983
   5.8489007  23.3719778  59.2297220   6.0961562  24.8613048  59.3381596
 109.8227787  68.1643391  81.9772911 109.5722866  68.6600018  81.1976719
 109.6464825  68.7591934  82.7061939   9.4534856  75.2076912  51.8661356
  10.3565180  75.4147005  52.1067858   9.2431206  75.8286333  51.1687088
  97.3401546  37.6445603  88.0644894  98.2035828  37.5654888  87.6589489
  96.7322159  37.3249912  87.3977661 110.1822567  49.8918486  40.6467962
 109.8843670  50.5800247  40.0518942 109.5156384  49.2086315  40.5756378
 106.6616535  54.4942856  45.5912542 105.9128571  55.0904608  45.5806017
 107.1343803  54.7178078  46.3930035  24.0419030  47.4628878  37.8681302
  24.6040368  47.5289917  37.0962048  23.4615231  48.2216454  37.8074622
  77.9148102  95.6684017  56.5104532  78.8558102  95.5410957  56.3898516
  77.5119448  95.1543522  55.8106852 112.2982317  56.7869949  53.2361746
 111.8629993  57.1039724  52.4447632 113.2308490  56.9191456  53.0659008
  97.8832817  38.3842087  51.4398527  98.3477783  37.6275945  51.7976379
  97.1906948  38.0058837  50.8981752   5.6610954  70.2068138  75.7762098
   5.1113147  70.9903765  75.7765150   5.1078379  69.5261860  75.3929472
   6.8440247  48.7452030  56.1445570   7.6112002  48.5437632  56.6803694
   6.1350745  48.2391977  56.5415192  42.1513510  82.1087646  49.6851015
  42.9173803  81.5352535  49.7080755  42.5064898  82.9880810  49.8151398
  42.2155046  51.1111498  18.5595334  42.4269962  51.8617105  19.1146541
  42.8213358  50.4260349  18.8420522  35.0718689  79.5044279  58.9584398
  34.2394590  79.9582481  58.8266230  35.7359862  80.1396084  58.6906052
  44.9710417 100.1201057   6.2361902  45.1226759 101.0627651   6.3043141
  44.8762417  99.9600029   5.2972484  39.7276521  14.9088430  39.4813919
  39.8927999  15.5213630  38.7646103  39.2285943  15.4172349  40.1206970
 110.6455994  13.7621236  42.4810314 111.2235832  14.5187628  42.5793409
 110.4611397  13.4834826  43.3780098 104.5045090  54.8406744  69.0248299
 103.7912941  54.5809555  69.6080160 105.2824020  54.8396921  69.5826054
 100.0174522  64.9190378  47.8289318 100.9699821  64.9817896  47.8995514
  99.8588467  64.0298843  47.5119448  86.4817619  99.5550442  72.4260283
  86.8886185 100.2249241  71.8765163  86.9460773  98.7481499  72.2033739
 104.7844124  82.3963356  72.0382071 105.2607536  82.4773884  71.2119102
 104.7451305  83.2893276  72.3806143 102.3819351  58.9863205  22.6236486
 101.7259979  58.6000824  22.0433092 101.9025993  59.1855717  23.4278655
  35.9097743  63.4243393  32.3343110  35.9212875  63.7079096  31.4201498
  36.5817213  62.7443552  32.3826337 110.1573753  73.1340456  71.7445421
 109.3160343  73.5030842  72.0132065 110.4435825  72.6170778  72.4975729
  13.9998245  63.6045742  48.8531113  13.0820692  63.5968637  48.5812712
  14.3071711  62.7139521  48.6841202   6.4886743  62.3256016  85.8743572
   7.0374942  61.5910673  85.5996037   6.9678468  62.7239561  86.6009521
   8.2437962  66.4753866  43.0710983   8.2133931  66.9726610  43.8884258
   9.1166008  66.6480064  42.7180433   8.4258789  72.4440098  67.0166254
   7.7118802  72.4858618  66.3804770   8.9229882  71.6647768  66.7678070
  17.1075630  29.4292331  54.2317438  16.4158940  29.4368386  54.8933840
  16.9782424  28.6067390  53.7595081  19.7204471  70.5546427  84.0102482
  19.0626025  69.9853468  84.4094658  20.3314471  69.9530172  83.5848618
  30.7577229  30.6787705  50.2421808  30.9878945  30.7664657  51.1671448
  30.5390000  29.7529030  50.1365280   6.4629185  51.0805702  37.4742365
   6.9878733  50.2888632  37.5919223   6.2652570  51.0998964  36.5378666
  92.3267651  47.6445150  53.6226892  92.4252796  47.4672222  54.5581532
  93.1941319  47.9357243  53.3414555  46.2941837  81.4335060  52.9271936
  46.0251045  81.2593365  53.8291311  47.2287560  81.6306591  52.9898930
   3.4383425  23.6774397  65.6332302   2.7452323  24.3373656  65.6151152
   3.0778575  22.9379916  65.1438475   2.1346980  66.0002661  64.8297024
   2.5803757  66.6423321  64.2771149   1.5877017  65.5009794  64.2232847
 105.8965588   9.3018883  19.8236036 106.0959148   9.4941449  18.9073479
 106.7296982   9.4199336  20.2798629  62.9655178  95.6333635   0.8941921
  62.8800757  95.3779648   1.8127236  63.6771114  95.0878523   0.5591091
  51.8105698  12.7751052  31.3066268  51.1384439  12.0974219  31.3789368
  52.6205349  12.3381710  31.5698290  15.9470475  53.8326168  86.5193272
  15.0801361  53.5154486  86.7724991  16.3377202  53.1033421  86.0379028
 102.6026344  64.8080111  52.1277237 102.5022697  65.1605940  51.2435055
 102.2774220  65.5023289  52.7007818  39.0134120  78.0997419  55.5705309
  38.6638975  77.9495716  56.4488888  39.7087359  77.4488878  55.4749250
 100.7903481  35.6702471  62.2821093 100.8180904  35.8501410  63.2218456
  99.9762630  36.0763192  61.9844484  27.8610325  53.7342930  34.1738677
  28.0278134  54.6042967  34.5365095  28.6697626  53.5069942  33.7150407
  36.7685604  63.4848785  68.1285143  37.2120452  62.6992893  67.8084993
  37.1022749  63.6028194  69.0178680  97.4067783  16.5238392  72.2003984
  97.3403645  16.2815666  73.1240463  98.2043266  17.0504975  72.1476793
  91.1785889  75.1294756  56.6665030  90.5523777  75.0312281  57.3837471
  91.4220238  76.0549974  56.6861677  27.6245570  63.2125282  36.5630436
  27.6383209  63.1570482  35.6075525  27.8837729  64.1138744  36.7543840
   3.7942776  84.8490143  36.0923052   4.2973951  84.3019009  36.6954422
   4.1383773  85.7321262  36.2262368 111.5714645  60.2588177  51.6721869
 111.9625950  60.3758430  52.5379610 111.7006683  61.1006021  51.2352276
   6.9914716  48.5218430  88.6547661   6.8093795  48.8433075  87.7717400
   6.6064590  49.1800117  89.2333889 107.2621441  58.3805943  56.2955713
 107.7804947  59.1852856  56.2988091 107.4137878  58.0014896  55.4298258
 100.0109959  47.3421574  69.1508818  99.6556664  47.7099752  69.9600077
  99.7847271  47.9830170  68.4768438  13.1151164  82.7278709  57.2871828
  12.7445507  82.3728752  58.0952024  12.9461396  83.6686039  57.3392582
  31.7734194  64.5913363  84.2821884  32.3697114  64.2558670  84.9516106
  32.3393250  65.0665236  83.6737633   3.0836260  10.3391540  37.7259803
   2.6558396  11.0402501  38.2176042   3.3302489   9.6963352  38.3909559
   4.4980979  67.2121382  53.2186460   5.2085602  67.8244591  53.4097958
   3.8007060  67.7595472  52.8577852  79.9452925  36.0905981  74.1568422
  80.2269459  36.4158487  75.0118971  80.0144196  36.8493080  73.5773468
  40.8917713  89.3591881  26.5351534  40.9701109  88.6084652  25.9464979
  41.1450195  89.0183353  27.3930097  95.2732849  99.5893288  62.9796267
  95.3722191  98.7044048  62.6284027  94.3933392  99.6005535  63.3562040
  86.0410309  15.5734706  81.3485527  86.7637634  15.0026488  81.6094112
  86.3696861  16.4598489  81.4987278 108.7726593  51.5539312  31.0791755
 108.5843658  52.4576139  30.8259249 109.6314907  51.3722372  30.6975746
  84.8343658  52.3378181  34.4871497  83.9250469  52.3405266  34.1882014
  85.1523972  51.4593840  34.2787266  81.3865471  14.6619725   7.2132856
  82.0150185  14.1281390   6.7272103  80.9069061  15.1416695   6.5379572
 107.1063709  62.9770947  38.2919312 107.5880241  62.4392939  38.9204335
 107.4998283  63.8462496  38.3693647  28.3460236  56.0869646  35.3427672
  28.0849719  56.9224596  34.9554324  28.1548643  56.1852598  36.2755203
   2.0241912  29.8239160  74.4130468   1.9737250  28.9377308  74.0547752
   1.4789464  29.7958136  75.1992702  35.0182319  71.9311762  35.5002594
  34.9542022  72.8847837  35.5529165  34.1180992  71.6381598  35.3583622
 103.1015015  96.6970921  28.1928563 103.2237434  95.8344269  27.7965093
 102.7611351  96.5124321  29.0682340  26.7076206  54.7539139  58.1303310
  26.2611437  55.4915571  58.5459948  26.0151911  54.1115475  57.9749775
  20.7702518  76.9512844  73.2555103  21.2895799  77.6826334  72.9213572
  21.0719323  76.1942053  72.7534628  45.1280832  74.4901752  39.0778303
  44.7381973  75.1819277  38.5433221  44.5987225  73.7151480  38.8898468
  43.8996744  41.7863607  76.2223864  43.7366056  41.4069080  75.3588724
  43.0294800  41.8857956  76.6085243  34.7734642  59.7684002  23.1565881
  34.0391827  60.2970934  22.8442669  35.1047206  60.2446175  23.9179802
  24.8053074  56.8887615  29.6200752  24.6925116  57.0573568  28.6846161
  24.3337274  56.0702276  29.7744942  44.1394711  61.0615826  45.3667974
  43.6615229  60.3162003  45.0031948  44.0044928  60.9946060  46.3120604
   7.7618277  63.1355524  88.4163761   8.4795308  63.6125469  88.8330460
   7.4545664  62.5288391  89.0899658   3.2966524  70.3716087  35.3716683
   2.3734173  70.6195641  35.4205251   3.6612576  70.6382895  36.2155724
  19.0649486  61.5176773  71.2793636  19.7772992  61.2321281  71.8514204
  18.3875239  60.8503771  71.3890648   5.3099865  52.8737354  48.0373955
   6.2465203  53.0540991  47.9561234   4.9505991  53.6567116  48.4545517
 101.7197800  74.4313335  68.1004429 101.6451550  73.6157990  68.5959959
 102.2555542  74.2020178  67.3411036 106.3876534  38.8260436  76.2005377
 105.9178448  38.0219293  75.9793663 106.6106510  39.2136502  75.3542137
   6.6862053  63.4389973  32.6564813   6.6472095  62.5452614  32.9969954
   5.8603024  63.8366032  32.9322052   7.1988338  82.9633713  50.1960564
   6.6931349  83.6362648  50.6518078   7.3599339  82.2935963  50.8606482
  20.4524398  78.0871773  49.0905428  20.9685516  78.1103563  48.2847357
  20.8468652  78.7587547  49.6469975  14.7080052  51.4014673  90.2875137
  14.5832360  52.0314455  90.9973049  15.0001526  50.6020212  90.7254314
  88.2633686  65.4574394  64.3267727  87.7905273  65.8088303  63.5723352
  87.7572060  64.6887922  64.5898724 104.7985744  25.7859015  71.4102888
 103.9453697  25.6572151  70.9959126 104.8704529  26.7339396  71.5211439
  15.5334914  40.4580402  87.6099586  14.6984422  40.0549030  87.3724651
  15.6468427  41.1657238  86.9754791  50.9530115  57.4194145  61.8583918
  50.4492998  58.2331371  61.8393278  51.0221195  57.2022343  62.7880621
   7.2979933  56.3292265  58.3636999   7.4899489  56.9340992  59.0803003
   7.8941405  55.5937624  58.5048771 103.5639286  46.0116339  44.6833229
 102.9486942  46.7424774  44.6234417 104.3994522  46.4198875  44.9101925
 110.5829811  70.6455803  10.2828240 110.5037975  71.2022924  11.0574400
 110.7181168  71.2585306   9.5601451  56.6718054  72.0436954  29.8311186
  56.9361734  72.9612350  29.8979402  56.2831354  71.9692850  28.9595532
  27.0731490 105.6831159  65.6907511  27.1438114 105.5825632  66.6400242
  27.9267924 105.4077605  65.3565264 109.4883347  71.7040968  53.8183546
 109.0798855  71.3486290  54.6076870 109.2465973  72.6302671  53.8199043
  88.0198860  59.7586489  50.8974791  88.7835979  60.3085423  51.0723925
  88.3561039  58.8631821  50.9339476  35.7932758  28.0101776  44.6690845
  36.1354446  27.3500872  45.2719355  35.4755616  28.7118292  45.2373934
  35.7187295  74.9035215  30.3612518  36.2500048  74.1599607  30.6460333
  36.0801244  75.6519413  30.8361125  86.6499284   9.2587964   0.7112679
  85.9219005   9.2301051   0.0904736  86.8133524  10.1923053   0.8457646
  32.1998024  63.2152462  68.3782864  32.8915048  63.6694193  67.8971338
  31.7928338  62.6420355  67.7286434  40.1978397  50.4032993  67.2974873
  39.6999526  49.7722387  66.7777729  40.2859116  49.9898386  68.1562853
 106.8387222  41.2082624  46.8769360 106.7160225  40.5968142  46.1507797
 107.7237129  41.5516376  46.7539787 111.7093754  44.9974012  46.5109396
 111.2398052  45.5541325  47.1320581 112.1522617  44.3487501  47.0580578
  27.8562498  49.8139381  71.0837317  28.4800267  50.4603672  70.7531834
  27.2167969  49.7155952  70.3782797   9.1320068 100.7940388  36.7615461
   8.5023797 101.4097118  36.3863850   9.0421265 100.0045300  36.2278414
 109.1130161  91.2705612  74.0547228 108.2406425  90.9131718  73.8889837
 109.4629574  90.7295609  74.7626066  89.4661236  69.8139668  74.9223614
  89.2320347  68.8860846  74.9006033  90.2534962  69.8496723  75.4655075
  30.6800580  96.4275265  53.0698824  31.2974524  95.8543873  53.5243750
  29.9968123  95.8381844  52.7503872  14.5271444  58.8018274  67.1314669
  14.5289767  58.4523153  66.2403631  13.6458087  59.1567421  67.2477245
  31.4024949  83.5362911  76.3215590  31.4811087  84.4283009  76.6597605
  31.9885755  83.5144424  75.5650759  27.9465580  74.1166639  37.0963955
  28.7895131  73.9377832  36.6796708  28.1698537  74.3536091  37.9965210
  37.6685023  85.7882595  65.8878183  38.1652188  85.9616947  66.6874599
  38.1334043  85.0636196  65.4694891  11.1352623  74.0168476  40.7950830
  10.8332300  73.5332918  40.0262022  10.4406786  74.6528816  40.9660959
  26.3322401 101.4809132  29.6528101  25.9632063 101.9036198  30.4282856
  26.6624212 100.6410980  29.9720788  15.6333911  64.3643951  65.4072666
  15.0322688  63.7022734  65.7485485  16.2824070  64.4792080  66.1014032
  14.0817332  73.1220055  25.2502990  14.4356823  72.3298788  24.8459697
  14.0844488  72.9336166  26.1887741  19.0055430  78.4567595  70.4771614
  19.5891893  79.0285921  70.9757566  18.7140107  77.8010559  71.1106396
   9.0287662  78.7951660  77.6889992   8.4579962  79.3161726  78.2538080
   9.9153584  79.0548658  77.9394817  19.4234157  58.4247446  71.3535166
  18.8187039  57.9243708  71.9014025  20.0887370  58.7455225  71.9623518
  10.0924444  54.7345924  63.4671736   9.2442524  55.0829601  63.1925058
  10.7307553  55.3595781  63.1233978   8.3102852  69.8811483  24.0292358
   8.1079149  70.7715464  24.3164039   8.0614817  69.8651743  23.1050754
   1.7660435 100.9061432  24.4180894   0.9178431 101.3308144  24.2898798
   1.5692130 100.1327229  24.9465871  13.2292736  64.2785311  73.0428076
  13.6786985  64.7941017  72.3731565  13.2298028  64.8401546  73.8179255
  23.2917206 105.4617160  17.5657153  24.0133993 106.0883563  17.5134087
  23.5884278 104.8069077  18.1977153   1.8188919  60.1512623  26.3204932
   1.2495885  59.9519539  27.0637321   1.8740590  59.3288994  25.8337641
  41.5959263  79.1316652   7.6103109  42.1013927  79.4050932   8.3757985
  41.7794514  79.8005819   6.9506925  47.7967405  98.3324242  38.5011816
  47.7714396  98.1890106  37.5551248  48.4850216  97.7454090  38.8140965
  12.4608707  92.8512859  49.0236855  11.8958271  92.1491051  48.7013626
  12.5506938  92.6755524  49.9603176  27.2436786  52.4857378  78.5517025
  26.9719243  51.6203976  78.2458162  27.6443315  52.8958082  77.7851820
  17.1139359  49.7034836  35.8189702  16.4310229  50.3486919  35.6357598
  17.1624327  49.6707821  36.7743802  26.9463515  75.8478451  80.0207710
  27.3324656  74.9772120  79.9251080  26.0229564  75.6808949  80.2097130
  31.4211822  90.7761097  85.8420181  31.6139793  90.4535007  86.7223454
  32.2792697  90.9697437  85.4646206  53.7428045  90.7990932  65.9271097
  54.5695829  90.8434486  66.4074230  53.4090090  89.9199104  66.1055422
  20.1029778  44.4120884  39.7491646  20.0537229  45.1023388  39.0878320
  21.0406542  44.2861223  39.8945189  19.7749126  86.9595623  36.6121674
  19.1241252  87.3841286  36.0531950  19.7062051  87.4173260  37.4500012
   3.0963135  74.7831869  84.3805981   3.0227935  75.0586843  83.4668541
   2.1947904  74.6103716  84.6519279  40.4708767  53.0674410  62.8589678
  40.3166723  52.7047586  63.7312746  40.8206224  53.9433861  63.0221653
 107.3142433  91.1851311  49.7437048 106.6677189  91.1429405  49.0391111
 107.2932720  92.0970917  50.0337267  11.2988341  67.5466585  31.7811251
  10.4154325  67.7467394  32.0906425  11.8608057  67.7104425  32.5384855
  37.5372052  80.5386543  69.5933151  37.7103114  81.1091900  70.3421450
  36.7893481  80.0067139  69.8653269  11.8296862 101.5118599  30.4097629
  12.3380959 102.2124672  30.8183074  10.9345055 101.6551113  30.7169485
  37.8411841  52.2827005  68.3932257  38.4074354  51.5809631  68.0720425
  37.0878029  52.2716856  67.8028631  88.8116932  65.3390312  45.9966993
  89.0420341  65.4100084  46.9230556  89.4925022  65.8349323  45.5419302
 104.7289085  85.4363728  51.6500425 105.4576397  86.0461521  51.5344572
 104.6926212  85.2827168  52.5941324  14.0727496  66.3879490  18.7362576
  14.5909393  67.1495152  18.4760129  14.4053328  66.1570024  19.6036005
  40.7416916  66.0089588  30.8612466  39.8933315  66.2038040  31.2594295
  41.0640383  65.2481937  31.3445282  11.7618024  90.4569054  77.5440741
  11.3682151  91.2969589  77.3082113  11.0224140  89.9147892  77.8191233
  38.9928269  95.6410789  37.0762658  39.0612435  95.0318336  36.3411665
  39.0845656  96.5070724  36.6789460  58.2993603  75.2647352  63.2156849
  59.1379738  74.8098660  63.2934666  58.4739017  75.9874487  62.6128149
  63.6894274  94.0994740  12.8145826  63.4180498  93.2699203  12.4216187
  63.3638716  94.7679138  12.2117329  22.1867990  60.5641937  31.5675354
  22.1132708  60.2851105  30.6548810  22.7569532  59.9107027  31.9726372
  29.3400311  89.4217873  73.8147688  29.1820097  89.4842720  74.7567654
  28.8793898  90.1745892  73.4441853  26.6201687  74.9244070  68.9054346
  26.5279746  73.9760399  68.8141632  27.2625399  75.1678562  68.2388592
   1.8770897  72.5622797  70.3022051   1.9453706  71.6601086  70.6147051
   2.3281245  73.0812168  70.9681654  13.2571507  97.5114822  27.0453095
  13.6862957  96.8520164  26.5001798  12.3224843  97.3871613  26.8804693
  93.6989212  89.9884224  58.4512615  93.9562988  90.3801918  57.6166964
  94.3592072  90.2942181  59.0731478  29.3878984  92.5695324  54.6734858
  29.3626761  93.0134869  53.8258410  30.2296638  92.1138859  54.6802616
  98.0814648  54.5059299  74.0415049  97.1520138  54.6509457  74.2185020
  98.2539463  53.6249733  74.3737602  23.5118890  35.6834340  81.1995697
  24.3390703  35.2741742  81.4535618  23.0358338  34.9940801  80.7365417
  87.7206993  47.6307821   7.2887021  87.9157829  48.4566355   7.7315706
  86.7729950  47.6485682   7.1553314  30.3708577  48.7969112  43.8138151
  29.5501256  49.2097378  43.5451126  30.9631991  49.5294809  43.9832544
  16.8626928  18.9215744  51.9901609  16.2955916  19.0111589  51.2242603
  17.4876690  18.2386112  51.7468548  21.1630011  59.2032385  42.4502563
  21.2025642  59.4479132  41.5256977  22.0787334  59.1083574  42.7122974
  23.8017678  94.0911102  42.3208094  23.9015341  94.0324497  41.3706303
  24.6358657  93.7761497  42.6691103  40.0038958 103.7948799  16.3636959
  40.9443092 103.7710476  16.1868095  39.8815846 104.5751858  16.9044185
  29.8490000  68.2007122  59.2718601  30.0244546  69.0588045  58.8856888
  30.5802107  68.0540705  59.8719072   1.6238159  50.3384304  92.1364689
   2.1790206  51.0352468  91.7865753   1.2747729  49.8983479  91.3613987
  15.3485274  57.1075535  60.4355145  15.4600859  56.5324593  59.6785116
  14.4242513  57.0201540  60.6685543 100.3016090  47.0642614  75.9760857
  99.6258736  46.7630625  76.5834570 101.0718155  46.5400076  76.1955452
  43.5265636  65.6166744  65.4045057  43.9974499  64.7871590  65.4845190
  44.2153645  66.2757826  65.3187037 108.4644413  79.5706081  56.4599085
 107.5316334  79.3599749  56.5016460 108.4933662  80.4621220  56.1126423
  15.2454233  67.9246473  33.2696581  15.1518476  67.2365141  32.6109052
  14.8292232  67.5646400  34.0528607  40.3827477  51.0738611  30.6729388
  40.1356983  50.2665138  30.2219582  39.5494246  51.4748001  30.9200311
  86.3873768  68.8658953  22.3127913  87.1232891  69.4697189  22.4131012
  86.5391731  68.4414959  21.4683509  23.8047266  49.3478918  53.2018518
  23.0307174  48.8378954  53.4406996  23.8269401  50.0620317  53.8388348
  98.4115505  60.2484226  65.6336689  97.5004482  60.1046753  65.3778267
  98.7165546  60.9449339  65.0522280  32.3942709  93.6200905  45.9224224
  32.2980738  94.5479107  46.1372185  33.2602406  93.5560226  45.5196524
  35.9373927  89.8100758  75.1001644  36.3917756  89.8899746  74.2614841
  36.6363049  89.8284721  75.7539320  35.8419275  54.3745422  56.4646339
  36.4293027  53.7497425  56.0393715  35.1635098  54.5479012  55.8120012
   4.5527095  83.7147999  61.1560631   4.9671760  84.1259098  60.3974867
   4.8314679  82.8000164  61.1148262   6.0574377  38.2984996  60.3924942
   5.3264499  37.6870322  60.4819107   5.6425476  39.1567445  60.3058004
  83.7566185  94.9034309  71.3114452  83.1652737  94.4843960  71.9367075
  84.6141434  94.5224285  71.5004587   9.3249512  87.7660751  50.2965450
   9.7581941  88.4254360  50.8385611   9.0379363  87.0965290  50.9174776
  17.1028125  89.6054840  50.1316166  17.2382379  90.5529785  50.1433611
  16.2549949  89.4794083  50.5576944   7.9373115  92.3419380  88.3275127
   8.3064222  91.5629101  87.9114628   7.9896039  92.1599102  89.2657852
  88.6406422  25.5271053   9.9291342  88.5132217  26.2363362   9.2990643
  87.9179382  24.9229383   9.7590810  27.4692130  57.7408361  75.6953239
  26.9291830  57.1497583  75.1707077  28.2360768  57.9130030  75.1489639
  30.9858704  41.7373848  44.7857475  31.6687417  41.9954491  45.4048729
  30.4528165  42.5247002  44.6752167  92.3932362  84.5390606  64.5398569
  91.6260147  84.0491390  64.2439365  93.0489159  83.8672352  64.7268677
  41.5060472  88.9925003  78.0368996  42.2538424  89.2509842  78.5756254
  41.8136597  88.2268810  77.5516891  30.4524088  92.1831989  44.5671749
  30.3628778  92.4908066  43.6651850  30.7810044  92.9429531  45.0478363
  26.9363761  81.8874550  40.8161879  26.5706849  82.4183273  40.1085949
  26.5841770  82.2786236  41.6156721  44.2903757  81.2387753  60.6819916
  44.1204357  81.1257839  61.6171837  44.5541382  82.1548367  60.5954504
 106.6881847  64.5354795  44.6408463 106.4977169  65.4687357  44.7356415
 106.5918350  64.3653345  43.7038279  11.4642084  84.3856430  63.4147167
  10.5708861  84.3279839  63.0757713  11.9987845  84.5899391  62.6474333
  16.3484693  85.4252625  21.3879824  16.1695611  85.9897900  22.1399999
  15.6065047  85.5671215  20.8001089  14.0700996  87.7096939  58.5935974
  13.3425391  87.7421474  59.2147541  14.5414746  88.5309124  58.7337303
  53.7632561 104.6833801   4.8525608  54.1230679 105.0174236   4.0308654
  54.3080235 103.9245987   5.0616473  28.1907082  66.8681908  45.2972221
  27.7727604  66.1399794  44.8375893  29.1023588  66.5950441  45.3997898
  28.0702758  80.0605011  66.0510349  28.7535548  79.7666407  66.6535378
  28.2047510  79.5355654  65.2619886  13.6089492  78.1175756  49.4227362
  14.4619596  77.6894474  49.3498564  13.6458051  78.8343239  48.7893772
  16.9113410  85.6163120  61.1395168  16.5214801  86.1531639  61.8294668
  16.2462223  85.5902958  60.4516411  33.1130052  53.3639097  54.3384600
  33.1213498  52.4116993  54.4357252  32.1846652  53.5971212  54.3441248
   5.5218428 105.5108547  21.4970446   5.6233537 105.2247810  20.5892539
   5.6265306 104.7115612  22.0131874  25.5349255  84.6852207  31.0663176
  24.9052453  84.7336960  30.3470230  26.2797046  84.2077351  30.7008791
  32.1456885  90.8864880  39.0604925  31.6441941  91.6253948  38.7158799
  32.6278281  91.2498665  39.8032761  25.0957561  78.4081125  46.6736412
  25.9026909  77.9713917  46.9463348  24.4198298  77.7353239  46.7555904
  50.3926611  60.1266336  61.1600018  49.8862314  60.8674860  60.8269882
  50.9323025  59.8527098  60.4183912  12.3914135  77.8841829  68.6651850
  11.7779338  78.0279255  69.3857479  13.2500172  78.0839729  69.0381670
  34.0338922  74.9307060  63.5599852  34.6648741  75.3255367  64.1618156
  34.5341086  74.2605495  63.0942583  24.6258402  99.9219036  59.1707230
  24.1843581 100.4786968  59.8120594  24.5124507 100.3796864  58.3377647
   1.6514981  36.6179371  83.8298798   0.7485465  36.6583705  84.1449547
   2.1773331  36.9202161  84.5703888  49.7717047 100.2542973  41.3356781
  50.3055954 100.5251694  42.0825529  49.9703503 100.8961678  40.6539345
  26.1668921  75.0054979  49.7474384  25.9889507  74.8028231  48.8290167
  26.2107062  74.1512680  50.1770878  28.3441210  51.9294071  49.4827318
  27.5051332  52.0130062  49.9358797  28.6331677  52.8315496  49.3455267
  16.5202224  86.5162754  43.3729458  16.5538263  85.7418156  43.9344740
  17.3752367  86.9314575  43.4861183  73.8277388  19.8913431  39.2014575
  74.7718382  19.7380173  39.1640949  73.4819078  19.4455922  38.4281921
  10.8852923  87.0617771  31.0965800  11.3772357  87.0515060  30.2755332
  11.4501977  87.5338173  31.7083764  30.3289580  69.4139576  50.7477188
  31.0253596  69.3247795  51.3983345  30.6694508  68.9714432  49.9702358
  23.1756783  79.8743343  83.9184189  22.3942018  80.0604439  84.4388962
  23.9041090  80.0011063  84.5263290  29.7450829  65.6705332  48.1875229
  28.9539385  65.8180571  48.7057495  29.7019839  64.7462416  47.9424524
  18.7760031  70.6973505  37.1845150  19.7195995  70.5440331  37.1360207
  18.5037279  70.8052015  36.2732148  20.9491420  80.4898357  50.2685928
  21.6382599  80.4344273  50.9306145  20.2672648  81.0234070  50.6767273
  23.3715272  89.0220833  34.3008733  23.3099437  88.4503078  35.0660610
  23.6647367  88.4463310  33.5946369  19.5859444  93.2222080  42.2936821
  19.3309593  93.3547878  41.3806438  18.8530779  93.5722160  42.8002739
 102.6186371  60.3279972  62.7811623 101.8463135  60.2498722  63.3411980
 102.3004055  60.7713318  61.9947720  39.4548202  49.3740797  59.6858072
  39.3414021  49.8234844  60.5233049  39.4867754  50.0784302  59.0384293
  13.6637998  61.9678545  84.9392700  14.1474712  61.1849499  85.2026272
  14.3395734  62.6312637  84.7998238  27.4504185  82.5253963  53.6942434
  26.8044448  81.8229675  53.6198521  28.2597494  82.0808029  53.9463377
   1.1097628  79.7756338  89.1822910   0.2930962  79.9055958  88.7002182
   1.4834964  80.6533051  89.2613411  18.2414627  60.2932835  60.6808805
  17.4564815  59.7506809  60.7558441  17.9185641  61.1919928  60.7463980
  89.5173645  89.5311069  76.9471788  90.1960850  88.8841915  77.1397066
  89.7321987  89.8500347  76.0706139  11.9824731  32.6384473  55.9369850
  12.6700544  33.1810331  56.3230753  11.7883623  31.9842482  56.6082335
  11.3420212  86.1384106  65.4621267  10.4807842  86.5522003  65.4048157
  11.3805318  85.5591106  64.7010994  92.1442032  51.2262869  49.6548653
  92.3277760  50.4138231  50.1264954  93.0033302  51.6286659  49.5275259
  18.2278359  68.3135653  32.7741265  17.4087632  68.2972002  33.2691860
  18.9107227  68.3679867  33.4426594 106.0471535  21.6313887   7.3990858
 105.7559586  20.7300997   7.5373399 106.9464111  21.6454816   7.7267468
  13.6588085  82.2031116  78.1878328  14.0203488  82.1233082  77.3051357
  12.7233827  82.3529530  78.0508757 107.0320702  57.7360630  44.8963213
 107.5274944  57.7051497  45.7147551 106.1522388  57.4466085  45.1378632
   3.5988367  68.8485861  32.6686454   3.6487305  68.0356407  33.1714988
   3.3026686  69.5034647  33.3008265  21.3910365  52.2107220  40.8759832
  20.8260465  52.8987741  41.2275553  21.8875313  52.6409292  40.1798201
  36.5393949  79.6950912  75.8664894  37.2660112  80.0843906  75.3799629
  35.7759500  79.8293114  75.3049135  18.4903097  92.3053932  39.2508912
  18.9231765  91.6684532  38.6824083  19.1408670  92.9964256  39.3752980
   1.6416033  33.0656981  49.0837717   2.0936716  32.4099422  49.6146679
   1.6559072  33.8588476  49.6194458 104.7494030  48.2583427  49.7898865
 104.6902370  47.9652262  50.6991816 105.2040863  49.0992594  49.8384190
   6.4541715  56.3310909  50.5231428   7.0561951  55.5879974  50.5632782
   7.0235252  57.0967579  50.4468536  35.7567382  37.7529883  49.9661112
  34.9114966  37.8369451  50.4074144  35.5333877  37.5621104  49.0551186
 101.2131882  64.1330481  86.7874241 102.0868874  63.9972210  86.4207745
 100.8859348  63.2502222  86.9599438  94.0875053   9.2768848  67.5362349
  93.2830620   8.7595713  67.4976206  93.9058018  10.0432205  66.9922256
  23.1141758  56.0620689  37.7859855  23.8708258  55.5305624  38.0333900
  22.5110483  55.9785938  38.5245633  93.3901310  88.5318279  31.8914270
  93.1740761  89.3118858  32.4023747  93.8521099  88.8687038  31.1237621
  65.5215502  97.0502663   9.6324730  65.0568533  97.3856068  10.3991759
  66.0766077  97.7777863   9.3516624  22.2196221  68.7068701  44.9416447
  22.0539403  69.3126106  44.2192459  22.4495006  69.2714167  45.6796646
  17.0719099  57.7731180  46.1856651  17.7874327  58.2185984  46.6393280
  17.4443424  57.5206614  45.3408051 105.7630825  68.8768625  28.8876152
 104.9383068  69.0191603  28.4231496 106.3632774  69.5215511  28.5129380
  44.9836063  53.7682247  24.6665096  45.5108261  53.8769102  23.8750219
  44.3818378  54.5125532  24.6575332  57.7609205 102.1529102  50.6503725
  57.7409887 102.5961590  49.8022223  58.6862803 102.1455383  50.8950853
  22.8828478  74.9740458  15.0647533  23.2912278  74.4180870  15.7283545
  23.6177611  75.3307915  14.5658875   6.6283345  38.3962917   6.5474063
   7.5510919  38.1549168   6.6279650   6.6437340  39.2966962   6.2229633
 106.5375328 103.8477993  81.5425014 105.6991577 103.6680698  81.1170006
 106.7691422 103.0246544  81.9726562  49.4416857  86.1469078  62.2177315
  49.2440319  86.5698242  61.3820839  48.7298489  85.5193138  62.3428297
  29.2087197  84.1307831  81.5748882  29.9370313  84.6482182  81.2312984
  28.8631964  84.6542072  82.2979832  36.6047454  72.9173470  75.0525093
  36.1605239  72.3827410  75.7106066  35.9016442  73.4114933  74.6309614
  30.5113125  67.5971365  32.5482583  31.3486195  67.3664284  32.1458626
  30.5804014  67.2744417  33.4467721 100.5773449  84.8741436  70.8349133
 100.5264473  84.1632462  70.1959467 100.4104328  84.4513988  71.6773272
  43.1358194  70.9036446  67.7757359  42.2573805  71.2787580  67.7135468
  43.2827187  70.7921886  68.7150049  98.6420155 100.1214314  41.7690706
  99.0331841  99.9414349  42.6239491  98.1036568  99.3516350  41.5851545
  28.0253553  59.2324400  80.5742168  27.2464752  59.7849560  80.6398201
  28.2884550  59.2973948  79.6561813  28.4604740  47.9632568  50.2671957
  27.8975320  47.9722548  49.4930840  27.9540849  48.4228516  50.9369516
  77.8923321  17.1595085  75.3787470  77.7388620  16.2702584  75.6979847
  78.6885262  17.4415600  75.8290243  43.0622768  89.5490456  56.3140631
  43.4364939  90.2085495  55.7298946  43.6863804  88.8237667  56.2875080
  36.3298392  67.2130919  62.1620226  35.8819938  67.5185061  61.3731050
  35.8014488  67.5530100  62.8841686  13.4174860  83.9988899  61.4155912
  14.1913331  83.6661911  60.9609509  13.6284316  84.9119377  61.6107512
   4.7307056  98.6071777  53.3272314   5.4939240  98.2550049  52.8692961
   4.6972999  98.1173325  54.1489124 105.6000328  64.5969534  78.4712744
 106.5016079  64.8136711  78.7088394 105.0836277  64.8477793  79.2371988
  45.0269032  35.1286030  68.0260944  45.4290962  34.4692111  67.4606943
  45.1006508  34.7647572  68.9083719  51.9908237  74.4374228  48.0268002
  52.8492641  74.2022514  48.3789492  51.3746977  74.2020273  48.7204933
 107.7058983  55.9210300  60.2442884 107.4807072  56.1337948  59.3386126
 108.1478500  56.7044783  60.5715847  14.1912234  62.3938465  40.4979515
  13.8486183  62.9580545  41.1911488  15.0525296  62.1215391  40.8145475
  54.8613501  77.1532059  39.8509884  55.3364086  76.5664244  39.2625642
  55.5469656  77.6155090  40.3331137  39.5916390  61.2514877  29.7206402
  39.3099260  60.6516171  29.0299726  40.0040054  61.9780159  29.2533660
  33.0530453  72.5944424  85.4189014  33.7741399  72.7110243  86.0374928
  32.3655558  72.1675682  85.9301376   1.7201087  79.8218918   1.2586997
   2.5342914  79.4815350   0.8878954   1.2092071  80.1010799   0.4989197
 111.3752270  74.2100143  58.7807846 111.3470650  74.3611097  59.7255611
 110.6608009  74.7428322  58.4316111 112.2446823  83.7052441  68.7767076
 111.6016388  84.3105507  68.4074688 112.5589657  83.2021236  68.0254936
  56.6579342  68.3055019  10.6008172  57.1188068  68.8487959   9.9615514
  56.2005758  67.6507282  10.0732481   7.9178578  77.3335743  58.0818081
   8.6571169  77.4290037  57.4812889   7.8535032  78.1825256  58.5192680
  93.2062721  14.8037100  12.3257124  93.7363052  15.3869283  11.7824376
  93.4842110  14.9928546  13.2219291  97.0068264  55.8244896  63.3715677
  97.8026009  56.1384630  63.8009787  96.9942093  54.8839235  63.5487795
  94.2271137 104.7149372  33.5603547  94.1077042 105.6608963  33.6448169
  95.0604820 104.6189308  33.0993700  11.5741313  62.5066710  83.3449554
  10.9899342  61.7908621  83.0948257  12.3351479  62.0715380  83.7293339
  35.2223325  93.6630440  63.1626272  34.5991015  94.3871593  63.2215071
  36.0597706  94.0459442  63.4239960  34.9566388  39.6133471  52.1658945
  34.6297431  38.9469934  52.7703333  34.8890734  40.4337025  52.6544476
  54.4880009   1.4206253  59.2836618  54.4894695   1.0160081  58.4161854
  55.0679064   2.1771109  59.1960812  46.7454386  84.9657822  35.3818607
  47.6448488  85.2123737  35.1662469  46.6410732  84.0904903  35.0087619
  42.1961117  81.0565186  66.1280966  41.7222595  81.8711853  65.9606934
  41.6331387  80.3729725  65.7647133  30.6285667  38.5798907  47.2195864
  30.1489162  39.3881989  47.0384502  31.0420251  38.3548403  46.3861370
  93.6552238  72.9473114  59.3900108  93.6098289  72.6180267  60.2876425
  94.4371891  72.5350142  59.0229034  28.8782930  70.9583712  79.2477989
  29.3288684  70.6685400  78.4545708  28.6842012  70.1498556  79.7219896
  31.1202407  64.2481184  56.8155527  30.3289723  64.7156239  57.0830727
  31.8388915  64.8211432  57.0827866 108.4460354  96.2067223  61.2545109
 108.9935684  96.4301109  62.0072031 107.9599762  95.4308414  61.5337658
  18.0077352  89.7340844   0.1033005  17.8074255  89.9651883   1.0103306
  18.9618196  89.7875236   0.0476345  45.0830746  65.5989981  48.8575411
  44.4229317  66.2651110  48.6658859  45.9176540  66.0631800  48.7924099
  31.6816878  45.2351856  86.8734550  31.8685150  44.3112659  87.0398808
  30.8673191  45.4040051  87.3473072  42.5599527  53.3877802  51.2982750
  42.9711199  52.8144789  50.6513596  41.7223549  52.9673243  51.4929104
   7.5959551  74.9118948  58.8686037   7.8247279  75.8166075  58.6555386
   6.7056197  74.9654341  59.2159796 100.0969219  85.9258080  40.1230717
 100.4290390  85.1381588  40.5538225 100.8675671  86.4834309  40.0163078
   3.1400731  63.2134104  59.9488592   2.9669470  64.0760326  59.5718431
   3.4725770  63.3982611  60.8272123  38.0747247  75.8663321  67.7052116
  38.5413885  75.8366966  68.5404205  38.4587359  76.6111422  67.2425842
 110.5903149  45.2292919  54.7662735 111.4538383  45.5832624  54.9790478
 110.7684898  44.3544769  54.4210434  80.4745293  21.4711976  71.0090971
  79.7045946  21.4602685  71.5777016  80.2304268  22.0495296  70.2864790
 107.5266838  75.2814627  28.9675593 107.3043251  75.4731178  28.0564833
 108.2000732  74.6034336  28.9122224  33.5423565  78.2829237  45.0212049
  33.7501454  78.8798046  45.7400799  32.8003144  78.6926746  44.5765543
  12.9752755  45.0401592  56.4667797  12.5596249  44.3441296  55.9578514
  13.7180090  44.6135616  56.8940878  69.4871569  87.5139999  46.5890789
  70.0637102  88.2706165  46.4825583  68.6050797  87.8665638  46.4713430
  91.6127300  37.4154639  58.2417631  91.1624432  38.1734800  58.6144304
  92.4382114  37.3663712  58.7238407  60.4102898  14.1241324  68.2661200
  60.3951883  13.8844204  67.3395443  60.4643631  15.0798035  68.2654285
  12.7002597  83.2307339  73.5766125  11.8560040  83.6749363  73.6550236
  12.7524698  82.6764011  74.3552160 107.1544266  59.5658016  37.0366287
 106.9892311  59.5880127  37.9792047 106.5295029  60.1908350  36.6691494
   1.8945864  64.7876453  76.2905550   2.3421064  64.9810505  77.1143007
   2.5856742  64.8204803  75.6290817  16.3821805  83.3938313  63.7138987
  15.4563582  83.4558868  63.9489174  16.7065310  84.2920494  63.7789392
  58.4430313 103.2017517  60.6847620  58.0058289 102.6030540  60.0792551
  58.2718897 102.8331566  61.5514135   9.8397171  82.8361034  19.9242520
   9.6723157  82.2647095  19.1747713   9.9806935  82.2357655  20.6563425
  19.7928917  24.0020418   4.2952877  19.3554509  23.2651663   3.8688013
  19.0954971  24.6402621   4.4454432  16.6754711  78.8954020  65.7481909
  17.3229647  78.8544750  66.4519739  16.5451920  79.8315191  65.5967331
  10.4422688  47.0659113  29.7555447  10.0857782  47.5974131  29.0437508
  11.3276803  47.4048996  29.8873162  99.0242100   6.5833497  42.4353456
  99.4078350   6.0772181  41.7191792  98.7825871   5.9276164  43.0894613
  54.3395042  68.8230228  62.3485947  54.5897770  68.2549143  63.0771923
  53.8918543  69.5607138  62.7628994  54.4350290  90.0428295  70.4302502
  53.5939550  89.9354553  69.9860716  54.4656467  89.3244267  71.0620737
  32.8852057  84.5546436  66.3210201  33.0219936  83.9277649  65.6107140
  33.7227178  84.5786667  66.7838717  25.9356332  49.4148636  14.8188078
  26.6927195  49.9149799  15.1236618  25.8058167  48.7442255  15.4893482
  46.0713530  99.9910164  43.3795071  46.3531590 100.8288193  43.7468004
  46.2672043 100.0611019  42.4451828  51.5239763  55.8002949  25.4562664
  52.0695782  55.2801418  24.8663592  51.1501789  56.4820910  24.8980021
  85.3514099  86.7132664  43.1814814  85.7000446  85.8491325  42.9625082
  86.0506248  87.3214245  42.9417276  14.4816920  41.7879598   0.0858101
  13.7059924  41.3980024  -0.3172508  15.0304458  41.0401075   0.3220638
  26.6427445  90.6041241  28.7976980  26.8681049  89.7904301  28.3467507
  27.1222758  90.5602169  29.6249557  22.4664950 104.9811840  22.3428750
  21.7433190 105.0817585  21.7238998  23.2123232 104.7251320  21.8002772
  80.5887794  76.7693186  71.4219809  81.2456703  76.7842722  72.1180391
  81.0264969  77.1699953  70.6709146  47.8705978  64.4804525  11.7087591
  47.4093437  63.7000608  12.0161068  47.2120333  64.9689913  11.2149405
  61.7372274   4.7063693  58.9411354  61.9153452   4.6544874  58.0020857
  62.5590229   4.4436097  59.3556738  42.7561045  72.2465754  64.5850897
  42.2106123  72.0521498  63.8229418  43.4270477  71.5639067  64.5798302
  94.6738052  14.1641915  89.8194218  93.8082409  14.3716478  90.1715374
  94.6674538  13.2129288  89.7131634  54.6252394   0.8481180  45.1595449
  54.2883015   1.6667175  45.5236864  55.3708887   0.6267904  45.7174444
  66.4831161  28.1059599  88.6404991  67.0766115  27.3637104  88.5262203
  66.7543268  28.7346721  87.9716206  80.3236294  22.2367334  55.2637005
  81.0406685  21.8461132  54.7641993  80.6013107  22.1655369  56.1769676
  26.7268372  90.9937191  18.8578784  26.5452385  91.0845184  17.9224586
  26.2484550  90.2069855  19.1194737  18.0805838  77.1865511  81.0261154
  18.9892125  77.3007345  80.7475662  17.5680828  77.6620388  80.3722954
  75.0046444  97.2655392  41.3000679  74.9657965  96.5678596  41.9542694
  74.3873549  96.9922161  40.6214809  32.1005893  85.5666351  47.2924948
  31.9545197  86.4268208  47.6861620  32.1095586  84.9620438  48.0345249
  99.3156624   6.4808279  24.5300126  98.9324665   7.1694386  25.0733447
  99.3479061   5.7142591  25.1023459  50.6595659  75.2219725  73.5126877
  50.7022667  74.5731354  72.8102446  50.3904247  74.7227812  74.2837906
  10.5510700  48.9186525  13.6200535   9.6473688  49.2170858  13.5176146
  10.4814494  48.1181908  14.1402888  91.1267281   5.7032973  20.1209545
  90.7168102   6.4854085  20.4904175  92.0659447   5.8485377  20.2350259
  55.7231283  85.1404667  78.7839079  55.2558661  85.6927586  79.4107056
  55.7064009  85.6386185  77.9667234  91.7899418  22.6559329  60.8461142
  91.0289860  22.2402358  60.4406786  92.3381042  22.9234815  60.1084328
  57.3747110  90.8953094  41.4531231  57.2306299  90.6113625  42.3558140
  57.1149397  91.8165684  41.4474678  38.5211372  10.1305354  28.7365127
  38.9592743  10.0659382  27.8879285  37.6481199  10.4646420  28.5304976
  13.5074401  47.5501966  30.2743697  14.0029716  46.7455387  30.4266953
  14.1072392  48.2522345  30.5265975  20.4243183  83.5868645  53.4555197
  20.8366370  83.3222485  54.2778349  20.8664703  84.4016933  53.2172251
  25.2290440  70.9635925  51.7673016  25.8209109  70.2113914  51.7564297
  24.5065761  70.6917238  52.3333073  52.5568295  96.8103504  51.3624334
  52.5934887  97.7634335  51.4431953  53.4587717  96.5510845  51.1739635
 108.0802345  91.7351151  68.0202055 107.5383282  91.0061264  68.3220911
 108.5976315  91.9823742  68.7866259  15.2827621  83.5213184  70.2215385
  15.9428358  84.1855621  70.4198122  15.7153046  82.9303169  69.6052170
 100.0891399   4.0067974  65.6406069 100.6551838   4.5859870  65.1303482
 100.2306557   3.1391191  65.2620029   7.9666609  70.7973528  72.1238708
   8.8297009  71.1549616  71.9152832   7.9917854  70.6467962  73.0688238
  33.6185718  94.2736435  56.5315533  33.5280132  95.1481915  56.9099760
  33.1596875  94.3267345  55.6932020  34.5523596  73.5550690  45.2201128
  34.1115403  73.8112164  46.0302353  33.9826775  72.8873205  44.8382664
  48.3340788  85.9643936  45.3110409  47.5208664  85.7771683  44.8421431
  48.9942265  85.4314232  44.8678875  39.7755575  85.0215912  75.5328941
  40.3097725  84.2384911  75.4002237  40.2978849  85.7333469  75.1630163
   4.9179289  62.7604389  36.7029381   5.6218976  62.1284962  36.8489218
   5.2044964  63.5489225  37.1638107 110.5710506  55.6146002  14.3610716
 111.2062931  56.2618494  14.0548527 109.8211098  55.7194090  13.7755466
   5.7168984 104.2885971  56.3905478   5.8193737 103.6182499  55.7150078
   5.5188739 103.7970352  57.1876621  24.6290421  95.9720993  46.5893555
  23.6942244  96.1680794  46.5265846  24.7880006  95.3368855  45.8911610
  15.3927112  77.0764017  26.1553121  14.9138665  77.5707388  26.8205738
  15.9193313  76.4516926  26.6539478  17.1359503  71.2509918  64.0147257
  17.3039949  72.1726322  64.2111301  17.6510692  70.7702494  64.6626186
  40.5629063  82.9397202  60.7395744  39.6954513  83.3431435  60.7077980
  40.4095936  82.0710564  61.1112547  40.3964424  77.9025269  27.4662590
  39.7324657  77.4075556  27.9462266  40.9445572  78.2913876  28.1478691
   4.4387582  74.7196102  23.5801816   5.3806180  74.8003674  23.4298158
   4.0666345  75.5162287  23.2018209  26.8022466 102.6538944  12.3767233
  26.1445665 102.0089817  12.1163869  27.6226902 102.1616077  12.4042177
  26.4318776  69.6639252  48.3623552  26.8422651  70.4947233  48.1223774
  25.8210015  69.8921251  49.0630579  31.4538527  96.7946053  32.3078132
  31.4515209  95.8374500  32.3171449  31.9512844  97.0405197  33.0877590
  41.0239029  90.6548882  29.9422383  41.0794497  90.1549816  30.7566309
  40.1063061  90.9217262  29.8871088  81.0192299   8.8431197  57.7112103
  80.4086494   8.1061065  57.6960373  81.4961433   8.7421304  58.5349751
  67.7085447  28.0290198  24.5748401  67.1766186  28.1257915  25.3647280
  68.3603430  28.7271619  24.6379972  12.6116812  53.9623594  70.7064247
  12.8198922  54.8730659  70.4978704  12.3001301  53.5926628  69.8802996
  26.9392896  98.3405399  44.2495012  27.0505095  99.1633987  43.7733030
  27.3130536  98.5116673  45.1139355  50.0655508   5.1155388  16.1354804
  50.8387232   5.6441975  16.3328540  50.3582287   4.5071667  15.4569125
  52.7190351   2.1272612  65.5103254  53.2270718   1.6845900  64.8304939
  51.9570065   2.4782780  65.0495338  44.9071169  73.7068987  24.4165373
  44.6330690  74.4161081  24.9980474  44.1396427  73.1382895  24.3540764
  95.2808857  71.0563755  36.8858576  95.7409382  71.7565489  37.3488331
  94.7999477  71.5048647  36.1903095  26.2761855  61.9420958  66.6441631
  27.1546149  62.2599840  66.8528271  25.8988023  61.7072678  67.4919081
  24.3297434  80.8768082  42.8558254  25.0858092  80.3156090  42.6836348
  23.7045836  80.6548119  42.1658087  60.9714937   9.8906147  38.2239890
  60.9727097   9.5220029  39.1073656  60.7517529  10.8136976  38.3499432
  38.8815689  67.8869867  61.3245487  38.0167079  67.6419544  61.6534901
  38.9039969  68.8411522  61.3973188  25.9003067  86.1159420  90.8468437
  25.5319571  86.6583633  91.5442181  25.3709865  86.3237667  90.0768661
  85.7857800  13.3232069   2.4946415  86.4214039  13.7973320   3.0307585
  86.3140678  12.7121568   1.9810645  58.7621307  83.4992027  47.2470379
  58.3899784  83.3524609  46.3774395  59.6844721  83.6955547  47.0828247
  64.3279266  13.7282336  39.9162078  65.0080872  13.2044184  40.3395653
  64.6840668  13.9287996  39.0506625  47.3452663  97.9563618  80.7900524
  46.4236832  97.9213238  81.0463428  47.7830029  98.3813000  81.5276432
  31.0697150  74.3549204  36.3992691  31.6681623  74.0646553  37.0876288
  31.6300631  74.4861794  35.6344080  35.6972837  12.4924076  19.9930871
  35.3738999  12.4847090  19.0922010  34.9695826  12.1493292  20.5117202
  16.3285339  99.1091728  62.2340393  15.8312702  99.5478439  61.5437317
  16.7339981  98.3597851  61.7978621   8.0506819  65.9531736  46.9759178
   8.7941539  65.5810595  46.5015650   8.1220657  65.5877781  47.8577471
  45.6976223  51.4237022  36.9563365  46.4160204  52.0443678  36.8342400
  45.6927919  50.9020424  36.1537933   3.0086550  34.0444112  64.7279644
   3.7239316  34.1149855  65.3601313   3.3815432  33.5490894  63.9986897
  22.7212644  91.3087749  38.9603972  22.6501560  90.7213688  39.7128153
  23.1599259  90.7861042  38.2891130  14.2807710  49.7780323  25.0986385
  14.2081833  49.4346666  25.9891796  15.1980281  49.6396303  24.8625994
  62.8488874  17.5614166  53.3149529  63.3018970  17.9422176  54.0672874
  61.9896555  17.3109293  53.6543846  48.3296585  67.0657682  49.3411779
  48.3669233  66.1325121  49.5506382  47.6245356  67.1389103  48.6979961
  30.2917624  60.1929617  66.7530155  29.8404980  60.0648642  65.9186363
  31.1683154  60.4895115  66.5081787  97.7332115 102.8877258  66.4664793
  98.5241699 102.7760220  66.9938707  97.7081776 103.8236904  66.2675619
  39.3033314 102.4209118  66.6891384  39.9732780 101.8360615  66.3350916
  38.8782454 101.9092941  67.3774576  90.4190350   7.4038774  59.0558481
  90.9084415   6.9348019  59.7316313  89.5001221   7.2535795  59.2777491
  49.2861605  96.6189671  47.3875713  48.4131336  96.2334347  47.3139572
  49.6226931  96.6226578  46.4914894  53.8939905  93.4416389  40.7969522
  54.6825266  93.2030010  40.3096199  53.4526205  92.6083279  40.9612942
  44.2228413  73.5336256  43.1722832  44.9510813  73.2580709  42.6155329
  43.7477779  74.1757774  42.6448488  51.2337112   1.5263990  59.3370295
  51.1589432   0.6993231  58.8610172  52.0939779   1.8670008  59.0917349
  41.5396738  86.5938377  73.8227081  42.2302485  86.4810181  73.1695557
  41.3010979  87.5188255  73.7616968  15.5201113  66.5313292  67.7615547
  15.0873804  67.3291826  67.4575710  15.0101507  65.8198500  67.3742962
  27.3366237  69.0848923  43.8665390  27.8282452  69.7083235  43.3318663
  28.0075765  68.5348272  44.2708731  33.2659006  97.1641350  74.9481249
  33.7127781  97.2349167  75.7916451  32.6959991  96.4008713  75.0423050
  10.7455003  70.7994556  85.6764984  11.0590279  70.3756952  84.8775291
  10.1451302  71.4781046  85.3679085  23.3020902  84.8644829  39.0140867
  24.0738058  84.3064213  38.9179254  22.6282573  84.4341946  38.4877539
  15.3010666  80.3446388  54.5533085  15.0294745  79.5255756  54.9675703
  14.5096099  80.6700802  54.1244507  40.2639532  68.3933926  34.3977690
  40.9592342  68.4735394  35.0507593  40.7269382  68.2881737  33.5666203
  29.4529867   5.8222884  59.4678307  29.2269754   4.9018556  59.6018267
  29.7042179   5.8754402  58.5457182 108.7870789   8.8823193  64.8909855
 108.4341049   9.7692478  64.8202658 109.1594601   8.8422626  65.7718706
  57.9146814  85.4498005  48.8225126  58.1441069  84.6991539  48.2746696
  56.9589424  85.4889965  48.7870359  16.0432243  67.8004599  53.5294247
  15.2732551  67.9383469  54.0811205  15.8651388  66.9795418  53.0704975
  30.0884628  93.0070686  61.3186789  29.5044279  92.8365040  60.5797291
  29.5071459  93.2983398  62.0211506   7.9256517  98.8486862  77.9503298
   8.7994432  98.4620285  78.0070400   7.9804742  99.4574738  77.2137070
  29.8566461  77.8373241  46.5249109  29.7335768  78.1685305  47.4145126
  30.4907227  77.1265364  46.6195536  16.1821532  96.7015076  46.3172340
  15.6651700  97.1672440  45.6599331  15.5622649  96.0968971  46.7251778
  54.4498730  80.8245564  31.5988255  55.0585461  80.5515289  30.9123778
  54.4063282  80.0748634  32.1923709  25.1600242  76.5169144  30.6523967
  24.8960805  75.5972528  30.6804490  24.3823457  76.9980240  30.9352112
  63.4890699  30.4295349  54.7139168  64.2193556  30.2326679  55.3005695
  63.7289238  31.2602663  54.3033171  37.8410840   6.4862150  71.8121481
  38.4923744   7.1874017  71.8318462  37.3464990   6.6412497  71.0074234
  39.1743827  82.4752331  36.7231607  38.9341545  83.0768776  37.4278212
  39.1904116  83.0212212  35.9371090  39.3085194  98.4187222  67.3803997
  38.6322618  98.1437206  67.9995012  40.1243162  98.0834389  67.7522755
  24.0831852  87.1991444  42.7892113  24.6091676  86.8290424  43.4981489
  23.6634541  86.4415264  42.3817062  66.9146919  19.4730365  47.1203756
  66.1378860  19.0123057  46.8033075  67.1933365  18.9729130  47.8874922
  97.2016239  75.6774473   3.6641809  97.8677845  75.3918266   4.2893824
  97.2508240  76.6332197   3.6816955  16.8431628  95.8517361  57.8995228
  17.2900438  95.1074409  58.3027124  16.4987373  95.5067253  57.0757675
  10.6113970  80.8930206  69.6646881  10.3660703  81.7532158  69.3239212
  10.6555760  81.0148048  70.6130791  93.4108829  84.8673153  68.4473753
  94.1302872  84.7814178  67.8218222  93.4574986  85.7766533  68.7426138
  37.0733404  47.7978230  14.4218671  36.2400675  47.4744749  14.0793252
  37.7012730  47.6340628  13.7182236  45.7452202 103.2918644  35.4882979
  45.3512383 103.4329414  34.6274233  46.1050797 102.4059582  35.4447389
  36.6577601  97.1204090  54.9445295  37.0449209  97.6802635  54.2715549
  36.2930393  96.3801479  54.4595337  32.4339414  47.9634714  86.9057560
  32.5047731  48.1629229  87.8392696  32.4022102  47.0075893  86.8668079
  89.2827511  26.8794727  91.5255070  89.1457558  26.4857483  90.6638527
  88.4943676  26.6546988  92.0196247  27.2546434  83.7008667  79.3292665
  28.0620885  83.8009167  79.8335028  27.0844150  82.7589417  79.3340778
  29.5980906  86.6931057  73.8923788  29.8436999  87.4113560  73.3092690
  29.3755388  87.1211720  74.7190952  32.4524379  69.3970156  11.3214982
  31.9372797  70.2027321  11.3622439  31.8080616  68.7088537  11.1558318
  53.7004137  10.1955462  70.2306271  53.9934969   9.3885398  70.6538010
  53.2102156   9.8994255  69.4636536  41.6808939   8.6260408  79.3917084
  41.3519526   9.1149932  78.6374187  42.6321507   8.6332113  79.2854595
  75.7798958   7.7812266  65.2757454  76.1938810   8.0934519  64.4711590
  75.4105616   8.5683370  65.6760979   8.9856529  99.6774197  67.9066849
   9.4454896  99.2311668  68.6177635   9.4684196 100.4949760  67.7851629
   5.9623170  63.4305620  48.4323215   5.2602708  62.8661680  48.7560797
   6.4247364  62.8928232  47.7894926  59.3066835  18.1825173  35.2878952
  59.1504765  17.3188078  35.6697822  58.5013199  18.3826995  34.8108768
  19.7728157  47.3393726  78.9951992  18.8795030  47.6656389  78.8866854
  19.9548507  47.4456549  79.9289036  41.3653564  53.2808065  43.5038471
  42.1030188  53.7281466  43.0891514  41.0635567  53.8903379  44.1773558
  95.9232807  77.5093794  70.2473927  95.8129311  77.5150108  71.1981916
  96.8472576  77.2974491  70.1147699  40.0655413  64.2159271  63.1451225
  39.6454549  64.4525766  63.9720201  40.7256222  64.8955727  63.0087042
  28.0649686  66.3556957  41.7234707  28.0563426  65.5025673  41.2895060
  27.1422410  66.5502357  41.8876648  84.6602726   2.1525155  61.6780186
  85.4530239   1.7082179  61.3773918  84.9734783   2.9795760  62.0442247
 105.5456543  93.5887432  55.7789135 105.4921341  92.6805210  56.0763931
 104.6369839  93.8891888  55.7620049   9.1276693  74.7805500  55.3710556
   8.4933156  74.0722561  55.4812670   9.9803877  74.3497133  55.4301023
  90.1546764  41.2492466  24.0376163  89.5011902  41.8367147  24.4171715
  89.6992207  40.4125166  23.9444852  19.5176685  71.0762548  22.0069385
  20.3302574  70.6615210  21.7172337  19.7964978  71.7215061  22.6566577
  25.7425070  87.2181320  64.4180393  25.7602072  88.1021881  64.7845936
  24.9626708  86.8158531  64.8004723  11.7351818  16.3724542  17.8494632
  11.4658034  15.4641831  17.7126765  10.9206247  16.8731856  17.8047550
  73.8412189  86.4714909  33.5185766  74.0668154  87.3333645  33.1685495
  73.0886316  86.1909962  32.9978442  27.3464251  97.1534348  50.8763409
  26.8009543  97.5795460  51.5374947  26.9974160  97.4645901  50.0411081
  43.6232471  97.4213314  31.2510037  43.4327984  97.2758484  32.1777177
  44.4600821  96.9797421  31.1062717  57.2175694   7.1790373  76.4538145
  56.7589617   6.9029140  77.2473335  57.0667601   8.1230843  76.4062452
  60.2371359  92.2974014  54.5921516  60.1277542  93.1018353  55.0992537
  59.7390223  91.6391754  55.0767660  32.8898287  67.5855780  34.3785381
  33.2882166  66.9283152  33.8079858  32.4753284  67.0776892  35.0760126
  97.1941566  29.4728756  45.8589506  97.2081661  30.4216409  45.7329416
  96.8662071  29.3544698  46.7503881  19.1017497  54.1351700  75.9344196
  19.7531927  53.4359169  75.9882498  18.4403503  53.8968706  76.5840292
  13.9631569  86.5110588  62.1869278  13.7916589  86.6335487  63.1206417
  13.5551679  87.2683716  61.7671108  13.5384250  66.2121248  74.7979879
  13.0809700  66.9685173  74.4307899  14.3982375  66.2249136  74.3775272
  39.0476990 100.9801292  54.9842787  39.7102571 101.5911198  55.3066778
  38.5583997 100.7231140  55.7657909  23.2448864  90.4367828  70.1353168
  24.1806221  90.3062630  69.9817038  23.1583881  90.4513454  71.0884905
  49.2875767 103.7466526  30.6374550  48.6813688 104.3148041  31.1127925
  49.7529793 103.2666206  31.3224435  38.4712005  88.4902477  53.5055256
  38.8713765  87.6615143  53.7687683  38.1284761  88.3225441  52.6276636
  10.4459417  94.7911930  76.9771433  10.9781480  94.0214634  77.1784115
  10.8554780  95.5013943  77.4712276  21.1041522  86.4073372  19.8369861
  20.8540225  86.2262630  20.7430100  21.1499572  87.3621559  19.7874129
  28.6048508 100.0572395  71.4976883  27.9386854  99.3701267  71.5158796
  28.5859942 100.3853798  70.5986881  96.6209474  32.2523420   0.3863510
  97.1101919  32.4266832  -0.4176918  95.7021656  32.3287790   0.1289925
  26.9456553  34.8433161  70.4532528  26.9002008  33.9272141  70.7269716
  26.3913107  34.8883080  69.6742058  45.1175833  58.7792206  33.6511493
  45.3904915  58.6302233  32.7458572  45.3709698  59.6844244  33.8317966
  20.6173468  46.0676908  46.0810757  20.9084249  45.2044582  46.3749027
  19.7626626  46.1861277  46.4954615  45.4283381  38.5498261  55.2400303
  45.8818150  38.7776136  54.4284248  45.3906155  37.5933933  55.2329969
  39.9555349  31.1827564  44.0614653  39.1360307  31.2779760  43.5761070
  40.2037287  32.0784068  44.2904663  11.2162793  54.9435234  77.3509264
  11.4084804  54.2745638  78.0080318  10.3205395  55.2195597  77.5450468
  27.4561064 105.7576095  45.3170490  27.0355217 105.3595567  44.5548868
  28.1333105 106.3245827  44.9480391  29.9668479  62.8270578  54.7715998
  30.4021239  63.3357096  55.4557323  30.6681108  62.3108578  54.3741083
  30.4657578  53.3554506  59.1805840  30.4598999  52.7804518  59.9458170
  29.9630404  54.1228390  59.4537592  39.3497372  40.6833744  36.3501000
  40.0435305  40.4969835  35.7175303  38.5597944  40.3146839  35.9547663
  40.7318926  94.8601818  81.9076729  41.6670513  94.7978020  81.7132092
  40.6942749  95.2537251  82.7794266  38.6822987 102.5238609  35.3778148
  39.2471838 102.7437782  34.6370220  37.7940464 102.6757050  35.0550389
  17.8866982  39.1660595  12.4076915  18.1739402  39.0146232  13.3081317
  18.4197783  38.5690951  11.8826306  53.2454538   3.2010239  61.7197561
  54.1266155   2.9735416  61.4230442  53.1011391   4.0861762  61.3852215
 105.1215363  55.1071405   5.2353829 105.5769634  54.5241833   4.6279463
 104.7578430  55.7959604   4.6790668  27.1270943  81.2723732  13.2929862
  28.0307698  81.5707493  13.1901538  26.6061664  82.0751858  13.2739961
   5.7183146  37.3596883  45.7545853   6.4172953  36.8673134  45.3242064
   5.2992254  36.7236543  46.3342905  36.7289281 100.2711296  80.1499939
  35.9343910  99.8895454  79.7767258  37.1722245  99.5355225  80.5726051
  25.4206920  84.8079491  33.8801455  24.5117474  84.9465179  34.1463232
  25.3802180  84.7166348  32.9281712  21.5739965  72.9631329  37.6380897
  21.8991137  72.2921848  37.0377922  22.1840644  73.6933804  37.5342178
  80.0353622  36.9156194   1.5763231  80.6122398  37.4974084   1.0813891
  79.2687321  37.4524808   1.7770517  78.6726999  25.5707431  47.2138262
  79.3417835  26.2492132  47.3046064  79.1645861  24.7497272  47.1990871
  60.1657343  83.6921310  70.5718422  60.3885937  84.6230030  70.5653429
  60.1702070  83.4383297  69.6489143  56.9689703  92.9101658  52.2710466
  57.9156113  93.0443001  52.2251320  56.6678667  93.0171490  51.3687563
  41.1501503  81.1056423  82.4593449  42.0434999  81.3132858  82.1854115
  40.8179760  81.9223499  82.8320217  73.8894558   3.3409357  79.4804478
  74.2306376   4.0438628  80.0333691  73.9353561   3.6920282  78.5911417
  44.2125845  98.3948708  70.5737114  44.7830820  97.8191280  71.0829210
  44.2317057  99.2282009  71.0442686  84.6035862  20.0305176  56.6145420
  85.3715706  19.6683264  56.1726761  84.5491791  19.5443797  57.4373055
  40.7699108  88.5902500  68.1127596  41.6487455  88.5844421  67.7334881
  40.2018404  88.8741493  67.3965645   4.5879757  83.4803391  33.6139894
   4.9397537  84.3701839  33.5880399   4.3213952  83.3546448  34.5246840
  29.5633864  67.5128365  82.0910072  30.4753327  67.7411079  81.9108009
  29.6167755  66.7607212  82.6806736  14.5050097  74.9555588  59.8588133
  15.1019835  74.5010757  60.4532051  14.8029327  75.8651495  59.8693800
  38.4377122  83.9142799  64.0819788  37.8834748  83.2315922  63.7038279
  38.3447123  84.6564484  63.4846830  46.9741631  87.6433849  36.9220352
  46.5486860  87.5959492  37.7781606  46.6912317  86.8487167  36.4696074
  75.0698853   6.5520811  79.5632744  74.9361706   6.1090446  80.4011726
  75.9875536   6.3854271  79.3479919  49.8658037  67.7233171  42.3134041
  50.0685644  67.8697586  41.3894606  50.5827045  68.1464148  42.7859211
  29.0402460 102.1778297  81.1005878  29.2398286 101.8446922  80.2257061
  28.0848122 102.1541405  81.1536980   9.0795940   8.9600164  12.9518950
   9.4171834   9.1635317  12.0796299   8.1931674   8.6343271  12.7956700
 107.4232197  31.1023712   9.1159374 107.8503036  30.4309440   8.5839462
 108.0619812  31.3097048   9.7980136  35.3797197  76.8504477  52.2219276
  35.8204770  76.0075331  52.1148634  35.1894164  76.9039631  53.1584883
  63.9716625  99.1182137  79.7874689  63.9171505  98.9396095  78.8486576
  63.9364195 100.0725746  79.8521519  12.2424889  75.7895088  49.1610241
  12.0811355  75.3854752  50.0136423  12.9191256  76.4449310  49.3307686
  41.5308380  87.6100922  24.4993949  41.5623951  86.7433071  24.9042654
  42.4305391  87.7757931  24.2177534  71.2405443  33.2845712  11.3788092
  70.4378080  32.7730846  11.2776601  71.1390162  34.0132308  10.7664549
  81.0184097  23.4814644  76.0417795  80.8588505  23.8904691  76.8923616
  80.2515984  23.7122679  75.5174160  63.3742762  87.8794193  78.8743258
  62.8485966  87.2598457  78.3683395  62.7902126  88.1744671  79.5729303
  12.9669774 102.5147724  49.0833282  13.3750689 101.6695118  49.2710352
  13.2156014 102.7051640  48.1788015  64.6495581  26.6934705  36.0785151
  63.7256098  26.9417191  36.1088681  64.7742367  26.3417697  35.1970410
  72.1316147  11.1187732  35.5410385  72.6442432  10.9710264  34.7462964
  72.6409245  10.7012141  36.2356496  31.7967033  80.0359726  75.6944561
  31.6638160  79.3019533  75.0946379  30.9630346  80.5062485  75.6858778
  80.8432961   3.4046113  54.5639849  80.0922203   3.8885427  54.2205763
  81.1003685   3.8873136  55.3495693  48.1689024  20.7509804  88.4418678
  47.3730421  21.2823701  88.4633446  48.1177187  20.2110243  89.2305756
  43.6331081  99.2531872  62.2462702  42.8485060  99.2513466  62.7945709
  43.8697100  98.3293819  62.1636200  69.7841692  16.8247724  36.1110091
  70.0329828  16.7112875  35.1937079  69.4727850  17.7283168  36.1646938
  45.3305340 101.0037231  37.8177786  45.0211143 100.1143837  37.6458240
  44.5743895 101.4511395  38.1976461 101.8583488   6.7918247  83.3837032
 102.4879456   7.4917364  83.5567951 102.2234344   6.0261714  83.8272285
  36.2872362   0.7284781  49.3974113  35.9681606   1.6208945  49.2631912
  36.8058825   0.5394074  48.6154366  83.0545235  19.9712527  26.9904494
  82.6542950  19.6519363  26.1816931  83.6230755  19.2557299  27.2750688
  88.9414406   8.5634464  25.2275276  89.1206074   7.6936322  24.8703837
  88.1074905   8.8175178  24.8322964  78.9940405  73.8096666  33.9963078
  78.6065531  73.1535006  34.5755577  79.0269852  74.6066713  34.5253944
  87.4842889   1.1301107  58.2131863  86.6460903   0.6693143  58.2495546
  87.9717357   0.6861943  57.5192356  68.3398151   9.4485003  52.9068327
  67.8143167   8.8997966  53.4890747  68.2598066  10.3298938  53.2714891
  68.9655638  94.1716099  59.5245600  69.4215059  94.9225616  59.9045849
  69.6569300  93.6577892  59.1071558  61.6327667  93.3354092  45.1622438
  61.1616993  92.5677967  44.8380518  61.1700439  93.5794926  45.9638309
   5.2967167  11.8339753  34.6452332   4.5697430  11.2113559  34.6359634
   5.7155544  11.7005002  35.4955220  91.7190552   4.6902433  59.4521236
  91.4905453   4.9048266  58.5477066  92.6500893   4.9017245  59.5205593
  13.8942254  83.1063938  41.1003160  13.8555169  83.9249611  40.6056547
  14.8148477  82.8470516  41.0625744  63.4458923  71.3240814  85.2650547
  64.0600204  71.9270802  85.6839371  63.9214993  70.4949760  85.2139664
  26.5028143 105.0257587  50.5081129  27.1869946 104.3604279  50.5819988
  26.2321067 104.9900818  49.5906830  47.8441048 101.4988041  33.3528781
  48.6520910 101.9749165  33.1613040  47.7776814 101.5141773  34.3076491
  55.6661701  97.8495884  32.6871467  56.1512327  97.8087139  31.8629622
  55.4163027  96.9425106  32.8632379  25.2415752  54.7203875  33.8731146
  24.5356011  54.1004944  34.0563202  26.0340548  54.2772722  34.1761875
  89.7353268   8.2165021  78.2909870  90.2966976   7.6527029  78.8231754
  88.9457035   8.3351797  78.8188505  63.7837839  30.2117777  27.9998875
  64.3301916  30.2835608  27.2172499  64.0682983  29.3985009  28.4168625
  63.2428980  93.2774925  55.1609945  62.9860115  94.1916752  55.0405407
  62.4144983  92.8005981  55.2116013  35.1149631  93.3153820  51.5506744
  34.3458509  93.4883308  51.0077333  35.3853655  92.4298668  51.3078165
   5.3144169 101.7504025  61.2668037   4.7344834 101.3889599  61.9370794
   6.0684365 102.0806885  61.7552662   6.9476354  44.3455505   5.9636641
   7.4088299  43.9621830   6.7096949   7.0044136  43.6792040   5.2788365
  52.1056700  16.8420076  56.6873789  52.8963852  16.6130030  57.1757984
  52.3778296  17.5576746  56.1129379  83.9710999  92.5634098  69.0677261
  83.4957218  91.8652630  69.5180941  83.7575245  93.3554268  69.5609999
  20.2026629  86.7585945  73.9648819  19.2807865  86.5122128  73.8895655
  20.5182266  86.7845249  73.0615664  18.7653077 103.0559921  52.0713139
  18.1107008 102.9129982  52.7548885  19.3548357 103.7147999  52.4382830
  27.2150993  82.4117088  64.3547487  26.7783213  81.6886902  64.8049641
  28.1144214  82.1082878  64.2307138   2.9844180  85.7777786  51.7766190
   2.3202063  86.3884830  51.4570951   3.1854251  86.0837364  52.6610518
  30.8403492  86.0039330  65.0180387  30.7711554  86.9428539  64.8452139
  31.7716885  85.8591270  65.1849747  79.0512419   5.5062383  59.1974640
  79.3006516   5.7684547  58.3113098  78.1033707   5.6360686  59.2278147
  16.1348486  99.3716717  68.4875202  15.6838918 100.1221085  68.1005859
  15.4519236  98.9033318  68.9676237  52.1152592  15.5351508  30.7960677
  52.8529978  15.6266785  31.3990545  51.7216015  14.6932876  31.0252762
  74.0150642   4.9031430  41.0224485  74.6181870   5.4043955  41.5712833
  74.4814777   4.0882266  40.8364391  89.5521736  93.4923649  37.1194911
  89.7342014  92.8532410  37.8084135  89.7342110  94.3400764  37.5250530
  95.1615715  32.3534608  26.0712647  94.7095966  32.8757572  26.7339540
  94.4663143  32.0599246  25.4824686   4.7106971   0.8989972  46.6256666
   4.3860139   0.9200353  47.5258684   4.0128555   0.4713887  46.1292839
  29.6888828  98.6608124  81.4511967  30.0459385  99.4567966  81.8450832
  28.8072658  98.9068508  81.1711121 106.8569946  22.8305769  63.5143280
 107.2356892  22.9920983  64.3784618 106.1221313  23.4412360  63.4569216
  46.2589264  95.5475998  55.7909870  45.3577375  95.7988548  55.5885935
  46.1806345  94.6885681  56.2059116  54.6672153  90.1263523  43.6759853
  55.0819969  89.4153309  44.1644955  54.6215439  90.8508205  44.2999172
  75.6951427  10.0480866  40.6181431  76.5171146   9.6689188  40.9293127
  75.1316214   9.2928958  40.4497194  85.7582951  21.4113927  44.0802860
  86.5242958  21.7699766  44.5284939  86.1048412  21.0532546  43.2630491
  49.5682430 104.9019814  50.5046654  50.3760052 104.8807621  49.9915361
  48.9108276 105.2498817  49.9021721  77.9336357  89.1479111  69.9007130
  77.7742863  88.4978962  69.2163754  78.8183689  89.4684029  69.7253036
  25.8944297  90.1323700  55.3070593  26.5078783  89.8536015  55.9869099
  25.8261251  91.0804081  55.4202080  92.8720951  19.4433069  54.3654013
  93.2933712  19.8009026  55.1469946  93.3170128  19.8737431  53.6353302
  46.9367790  95.4178619  47.9406500  47.2493982  94.5515919  48.2015562
  46.7562389  95.8662033  48.7668610  68.7511587  24.5490122  81.9500828
  68.0747366  24.8396325  82.5618267  69.0438271  23.7070560  82.2989178
  63.6139774  67.4704504  64.2004967  63.4482956  67.6490641  63.2748175
  64.5299768  67.1943235  64.2309332  82.6932144  86.7865372  26.6359162
  83.2420731  87.5702858  26.6626596  81.9541264  86.9920731  27.2083926
   9.5707065  22.0363021  33.4892249   9.8468828  22.3357654  32.6230383
   8.6241227  21.9175673  33.4110427  57.0788193  18.4955442  33.5879469
  56.9238663  19.1265583  34.2908287  56.2045765  18.2772255  33.2650399
  92.7723312   6.2984747  36.8540025  92.2890568   6.3059771  37.6802111
  93.4759045   6.9346792  36.9822836  64.7898960  98.9239311  69.7997236
  64.3618870  98.9272785  70.6558943  65.7146692  99.0769577  69.9936581
  61.2351084  12.6834595  28.4900165  61.1949301  12.3859584  29.3989229
  60.5346870  13.3320069  28.4190965  40.6399012  83.6567307  39.9196148
  39.8446584  83.1254005  39.9584270  41.3320351  83.0752945  40.2344465
  76.8026686  30.6347513  87.8328228  77.0834017  30.7862544  88.7353039
  77.2414064  31.3190866  87.3274326  55.3585100  10.0853634  65.6484747
  55.0781298   9.4497883  64.9899435  54.5790100  10.6144273  65.8178806
  18.7454545  28.9834547   8.9933330  18.2447326  29.5715666   9.5586938
  19.2750680  29.5669317   8.4499228  23.2981849  97.9133511  61.5249014
  23.3220363  98.3691883  60.6835508  23.9231896  98.3884430  62.0725155
  58.7873745   9.7273147  44.2229271  59.5084572   9.9428469  43.6314726
  59.1305494   9.9136734  45.0968456  44.9308920  99.4217396  35.5902123
  44.8147058  98.7565136  34.9118352  44.3483162 100.1348019  35.3287029
  66.0325527  11.8157518  59.3018818  66.4127731  11.4198637  58.5176992
  66.4781284  12.6588678  59.3846416  16.1566389   9.9508470  49.8110199
  17.0894372   9.8776138  49.6091366  16.1310089  10.3094614  50.6981325
  75.1435757  89.9837494  45.8444071  75.9221697  89.4344425  45.7534218
  74.9646044  89.9916935  46.7846918  21.1305714 102.7371693  70.2666044
  21.6282868 101.9688702  70.5462933  21.5353537 102.9964638  69.4388628
  47.8763866  79.2025566  82.7479744  48.0246258  80.0832844  83.0923080
  47.9413700  78.6319208  83.5137272  70.2191257   8.2888228  51.2412786
  69.8969603   8.3697945  50.3435659  69.4593906   8.4905040  51.7875004
  68.0174255  92.3900414  61.3358927  67.0858145  92.6029682  61.2811613
  68.4349537  92.9784393  60.7068539  82.2402096  20.2762508  42.2235203
  81.9293690  19.5255387  41.7175150  82.7200508  19.8893487  42.9558420
  45.3612089 101.2367439  60.6008577  45.0479317 101.0435581  61.4844704
  46.0479307 100.5888271  60.4432201  50.4446030  86.5145397  82.9599380
  50.6794739  86.2034035  82.0857143  51.2624598  86.4756584  83.4557438
  72.2943449  21.2215137  74.6285200  71.9865370  22.1223474  74.5286036
  72.0147467  20.9690833  75.5084848  93.5401917  16.2460220  71.0627127
  93.2987309  16.0660446  70.1541233  94.0336895  15.4730666  71.3369989
  26.4401793  62.9713917  63.9921761  26.5146708  62.4791813  64.8097372
  25.6154752  63.4501553  64.0751362  71.2076664   3.8368529  13.1844795
  70.7233429   4.5553285  13.5912383  70.5295134   3.2522917  12.8459120
  44.0384340  76.7821884  37.7699327  43.1315660  76.4839983  37.8399634
  44.0256596  77.4228907  37.0588994  53.3481550  65.5227232  79.0851212
  53.7959290  65.7501936  79.8999691  52.4220181  65.6801510  79.2687511
  86.3670540  12.0105767  68.0785656  86.6890240  12.9075372  68.1681633
  87.1403694  11.5017152  67.8350878  56.6667461 105.3238010  63.4552717
  56.0550213 105.5442429  64.1577148  56.5672779 104.3789387  63.3387947
  77.5634146  13.5467458  62.4177933  77.9559231  13.2998562  63.2551813
  77.4640417  14.4972944  62.4708462  50.8127069  21.9845223  31.9847655
  51.3430119  21.9571877  32.7811718  50.5417013  21.0770035  31.8462014
  85.9172440   4.7775963  36.1155581  85.2642250   4.3856618  36.6953731
  85.7179260   4.4166812  35.2517056  68.3675241  12.7376080  29.6984768
  69.0312672  12.6988447  30.3870797  67.8467751  13.5121083  29.9110866
  61.2646627  98.8173771  31.8994784  60.6669521  99.3546963  31.3796091
  60.7802010  98.6295891  32.7033877  32.2738862  92.0620155  53.1921816
  32.4258161  91.4133453  53.8794708  32.9581881  91.8903160  52.5452805
 100.2637577  46.1157417  41.7477417 100.0981426  45.6886673  42.5882244
 101.2179375  46.1430264  41.6768503  50.3145266   0.5159891  76.5105867
  50.3934145   0.9827338  77.3425484  50.1636648  -0.3955529  76.7607164
  35.4222727  92.5099754   7.1739179  34.7901678  92.3881626   6.4655155
  35.3149390  93.4242916   7.4360937  57.8028758   0.5831689  28.8494945
  58.6269124   0.1372785  28.6535931  57.2834964  -0.0690776  29.3196511
  60.5799818  28.3377743  33.1071782  61.1772108  28.9164591  33.5811782
  61.0152674  28.1783247  32.2697210  76.4785099  11.7066813  88.3001995
  76.3842487  11.9569802  87.3811245  77.2938108  12.1232426  88.5794735
  85.4622650   7.8493124  43.0018568  84.9801922   7.0236945  43.0487251
  84.8291016   8.4769124  42.6533556  79.4319534  25.0538254  71.3347340
  78.9462805  25.8755779  71.4059925  80.3447437  25.3231907  71.2323427
  86.8067169  17.1076703  69.8670626  86.4247227  17.9057550  69.5018530
  86.1213493  16.7509067  70.4320574  43.7499619  94.4407940  62.1947718
  43.1969833  95.2192211  62.1277285  43.3707571  93.8230515  61.5696049
  68.8187933  69.8471737  74.3334150  68.2514668  70.4239225  74.8450184
  69.6630096  70.2978754  74.3133736  68.1075096  33.5149097  62.5608873
  67.6310396  32.6977515  62.4143744  68.5200691  33.7059355  61.7185497
  83.0418110   7.0201308  71.4826298  82.7824879   7.9206163  71.6778421
  83.9839935   7.0717317  71.3217878  27.2269106  46.5393877   8.9043164
  27.1333480  45.5983114   9.0521467  28.1668997  46.7019415   8.9832294
  77.5326538 104.8917675  57.4332047  76.7862463 104.9541283  58.0292034
  77.3041344 105.4659843  56.7022610  49.8603773  81.5012932  80.8675766
  50.0193024  81.0228348  81.6812420  48.9132118  81.4485836  80.7398129
  32.5694871  91.2180328  88.6192513  31.8612003  91.8580437  88.5488796
  32.1288228  90.3688335  88.5891819  46.7814970  57.1999454  27.3957801
  47.5181246  57.6931047  27.7569032  47.0505667  56.2838173  27.4631524
  39.5100236  89.2109680  23.7396073  40.2337265  88.6514568  24.0214419
  39.9354434  89.9821663  23.3647680  55.8226109 100.2676010  51.3751173
  56.4025688  99.8271179  51.9962835  56.3271332 101.0214901  51.0695839
  48.9827824  99.9490547  57.9474211  49.0361547  99.0869617  57.5348902
  48.2282829 100.3669357  57.5322819  80.2236080  66.3732862   8.3779687
  80.7945442  66.6581726   9.0914834  79.4135857  66.1052322   8.8118416
 111.2528992  95.7470512  47.7364206 111.1309242  95.7541752  46.7870522
 112.1893597  95.9029770  47.8587675  35.8193278  84.4960976  61.5410757
  36.2408304  85.1428223  62.1070433  34.9816155  84.8943806  61.3047695
  34.1552520  91.8639469  78.5058641  34.7982359  92.2612476  79.0931988
  34.0100121  90.9891605  78.8662672  22.5913548  74.1107798  60.0478697
  21.8411040  74.2681932  60.6210852  22.8506541  73.2085848  60.2350569
  62.3168898  13.6161661  55.0750589  61.6665888  14.2269027  55.4219580
  63.0068731  13.5987568  55.7382679  96.0742855  98.4735489  75.2883673
  95.6504345  97.7194691  75.6981802  96.8035316  98.6845303  75.8713865
  80.8093834   8.9251578  32.0110059  81.2562180   8.7248731  32.8334761
  80.4160786   9.7857744  32.1555090  31.2607837  97.4520016  38.2159829
  31.4807773  98.2652092  38.6704350  30.3237367  97.3357964  38.3730602
  99.8492622   8.6038500  83.1991005 100.3965950   7.8216946  83.2689953
  99.6383095   8.8302910  84.1048908  51.1937714  97.3011112  36.2995076
  51.5909576  97.5908089  37.1208167  51.9374943  97.0877743  35.7359505
  43.4471512 103.2872295  60.4895401  43.1924486 103.2428551  61.4111614
  44.1409588 102.6337528  60.4010534  78.3458805  61.9577646  56.3588142
  77.9905128  62.6750326  55.8339596  77.8102446  61.9532394  57.1521044
  29.6170259  70.7522106  58.3289051  29.7329521  71.5668058  57.8398037
  28.6725354  70.5972958  58.3157682  72.5077677  18.7660062  73.7485886
  72.3704290  19.7058368  73.8672781  73.2417202  18.7065578  73.1370211
  80.3716469  25.7126021  63.8003206  80.1392937  25.5798268  64.7193527
  79.9428177  26.5342712  63.5611534 103.9059353  56.2570047  63.9567089
 104.3422985  57.0659399  64.2239952 103.9047241  55.7138252  64.7448635
  82.5631905  57.5404596  75.8571386  82.9138279  58.3616161  75.5121899
  83.0850887  56.8598700  75.4321051  75.9377718  10.3063107  45.6504393
  76.1216021   9.7089869  46.3754511  76.4319038   9.9475193  44.9133301
  53.1332874  98.1377602  47.4484062  52.3179293  98.4107494  47.8690100
  53.8042068  98.6957455  47.8417921  36.0067463  60.6624746  53.2262993
  36.0052967  60.1926231  52.3923540  36.8521929  61.1108255  53.2471371
  31.0182858  38.5551929   1.2892669  31.0796070  39.4615126   0.9875155
  30.1359701  38.2792830   1.0410265  95.5509281   5.7326907  49.6782160
  94.7246265   5.5831856  50.1376820  96.1351967   5.0498885  50.0078201
  63.6548615  -0.1703972  23.2332778  63.8650322   0.3972524  22.4917698
  63.4019995   0.4325599  23.9323735  84.6186066  98.9045525  60.2425718
  84.8477840  98.4880924  59.4117451  85.4111195  99.3748569  60.5013704
  46.4803696 102.6200104  63.9038563  46.2430525 101.7178631  63.6892796
  47.2566080 102.7963829  63.3722782  80.2274799  27.4103618  17.3170996
  79.5991468  28.1286430  17.3913169  80.2944374  27.2469687  16.3763273
  62.8889179  28.9472866  49.6039486  63.2825613  29.4579244  48.8964701
  63.0464888  28.0358005  49.3577862  22.4435806  91.7817116  53.0670595
  21.7325330  91.3417435  52.6011515  23.2416010  91.3974762  52.7040672
  66.2372112 101.4639664  54.1345930  66.3813639 101.7666245  55.0311756
  65.3235388 101.1788750  54.1220284 104.7937584  24.3652940  33.4700632
 104.7756863  23.4531498  33.1804109 104.8545551  24.8724890  32.6605630
  46.2935066 104.5260620  51.3445902  46.3757658 104.8548126  50.4493904
  45.9481764 105.2678204  51.8413591  72.3849010  89.9135780  19.5783281
  72.0640278  89.0299416  19.3982041  71.6797495  90.4893780  19.2825925
  82.2907162   2.4290220  59.0060902  82.4632168   1.5911502  59.4355583
  82.5898170   3.0862820  59.6344042  84.6240330   8.4589827  84.9213219
  84.3064499   9.3524164  85.0522709  83.9203358   7.9031622  85.2561378
  82.8451061  66.4638090  69.1951275  82.9049110  66.0599613  70.0609016
  82.7218914  67.3960972  69.3737078  43.7831020  81.8152046  37.7582622
  43.8139200  81.1412716  38.4373021  43.1762505  82.4718857  38.0999231
  37.2516060  86.8719387  51.0287762  36.3782930  86.6183662  51.3275385
  37.8397083  86.2427235  51.4464617  58.8880825   7.5359571  47.0755386
  59.1552782   7.3280889  46.1802006  58.2269907   8.2208973  46.9752932
  54.8425007  99.0612316  38.2172680  55.4637241  99.7844696  38.1321549
  55.1532888  98.4040070  37.5946069  34.5754552  92.9061699  19.7608912
  33.7799358  92.7892208  19.2415631  35.2678561  93.0351162  19.1126728
  32.7752566   3.4622082  21.6920733  33.4083462   3.8356024  22.3052669
  32.6517272   4.1433251  21.0309744  47.2612190  86.8518162  74.3466330
  46.4038992  87.1113396  74.6841002  47.0635748  86.2753582  73.6084843
  96.2209892  36.1530733  85.4528809  96.0487461  35.2395010  85.2249527
  96.6419888  36.5187502  84.6748924  93.4178543  76.1822033  66.1463594
  93.2870579  75.5373192  66.8415213  93.7721634  76.9497728  66.5952873
  52.7169037 102.5069618  67.1318674  51.9706583 103.0352211  66.8485022
  53.3850336 102.6581860  66.4633179  57.5225782  17.7589679  21.2458968
  56.7798996  18.0493999  21.7753410  58.2054710  17.5525057  21.8840623
  92.3404980  72.8795147  15.5193269  91.5873909  73.4571409  15.6434798
  92.9105759  73.0655146  16.2654126  55.8039427  63.4474039  57.6890564
  56.6310596  63.4009314  58.1685829  55.9485865  64.1234016  57.0269823
  95.8375454   9.6726674  17.3971379  95.4194069   8.9355946  16.9520366
  95.6093979  10.4346800  16.8646729  82.4284554   2.3490398  67.4257851
  82.3804665   2.3688722  66.4699936  83.2046986   2.8675857  67.6374340
  44.4032478  70.0804329  65.3298664  43.8014793  70.5071020  65.9398317
  44.8754549  69.4431162  65.8656645  36.6759443  85.9152412  70.9149313
  36.4756727  86.6623116  70.3510094  37.2328925  86.2777138  71.6038799
  99.2661762  27.4099922  57.2227526 100.0272179  27.3718357  57.8020525
  99.4547653  26.7693162  56.5370417  55.4171705  94.8562908  43.9312220
  56.3247633  95.1414394  44.0370178  54.8956060  95.6112289  44.2037535
  58.8256836   7.7351320  41.7474794  58.3755922   7.9479927  42.5650024
  58.1358814   7.7477783  41.0839748  75.8087015   8.1889200  69.2432499
  75.9758806   7.3467052  69.6662855  75.7647038   7.9833484  68.3094215
   8.3568186  60.2842808  85.0244617   8.8031554  60.5020952  84.2061806
   8.0499023  59.3864489  84.8982239   2.4275203  86.9485760  26.7693138
   2.9467711  87.5167084  26.2002397   2.8876227  86.9651222  27.6085162
  82.8629112  21.7772985  80.7112789  82.6234436  22.6897812  80.5492210
  82.4584484  21.5695047  81.5535831 109.7220421  45.6933069   3.8272458
 109.4077396  46.4099836   4.3784446 110.2492523  45.1524115   4.4152194
  43.1081200 102.1231651  74.7258568  43.2170725 101.7341900  75.5936432
  43.2619333 103.0581474  74.8614502  39.7327352  71.4881849  28.1815553
  39.2008376  70.9384251  27.6061535  40.4625845  70.9263468  28.4421158
  86.2085247   6.3983166  65.7251215  86.9202137   6.9129163  65.3444290
  86.6280365   5.8814865  66.4129686  37.7415371  84.1052818  38.5929394
  37.6503801  83.2832813  39.0748620  37.2376037  83.9696217  37.7905178
  18.9056361  65.9082651  71.3460970  18.8161612  66.8269968  71.0928011
  19.3964601  65.9329891  72.1675062  49.4722366  35.9411693  19.7068775
  48.5975409  35.5554771  19.7556174  50.0595474  35.2389860  19.9865866
  73.6021328  18.0103314  50.1651907  72.8051329  17.6275063  50.5318880
  73.7254000  17.5548339  49.3323851  57.3159742  95.6745148  79.5049238
  58.1151056  96.0080242  79.0970087  56.7809629  96.4537430  79.6559191
  69.5134640   7.9431617  57.2622204  69.8958540   8.2857573  58.0700779
  70.2419281   7.5100034  56.8173122 103.2724571  94.8297596  62.4692583
 104.0982151  95.2250290  62.7487564 102.9356956  95.4261208  61.8005466
   5.1820970 102.3243141  50.5391026   5.7810473 101.7058277  50.1208067
   4.5873448 102.5926781  49.8387623  35.2634788  88.7899780  26.1900473
  36.0819459  88.9656734  25.7258558  34.5781660  89.0174866  25.5616999
  71.2033653  14.9870098  56.2922859  70.9266090  15.2221847  57.1779108
  72.1454716  15.1560688  56.2829304  94.3612576  21.6593289  61.4740324
  94.8251343  20.8384824  61.3089180  93.5209370  21.5534472  61.0280752
  48.1635475   3.1993821  43.9357471  48.2596302   2.2637595  44.1135406
  48.7713051   3.3701029  43.2162237  85.9767914 105.1262665  61.8896818
  86.2387657 105.3402805  62.7851152  86.3242722 104.2466354  61.7422295
  89.1738701   7.1782058  67.3234177  88.4947777   6.5156883  67.4504185
  89.0785789   7.4467605  66.4096212  51.0727692  99.9531746  31.4244199
  51.8608665  99.4807911  31.1561060  50.3498030  99.3951130  31.1378455
 106.2549496   7.9104966  54.8524618 105.3153229   7.9769737  54.6824265
 106.6586685   8.4690499  54.1881847  48.9887953 102.5622177  51.6859913
  49.1139126 103.3744240  51.1951780  49.8375559 102.3973846  52.0966911
  34.2577839  65.6208277  49.8018312  33.4135532  66.0496426  49.6617270
  34.0369678  64.7027969  49.9589634  42.4849939  75.0189686  41.5674162
  42.1480417  74.5171833  40.8251858  41.7019796  75.3391743  42.0152903
  44.1687202 101.1829853  57.1646404  44.0361404 102.1070766  56.9532299
  44.6780682 100.8399868  56.4303684   3.0279329  90.2262688  43.4359837
   3.5276043  90.6148052  44.1540337   2.9713351  89.2970943  43.6588573
  37.2334599 103.9033031  28.3060813  38.0762863 104.2371082  28.6134100
  36.7148042 104.6882820  28.1298828  33.8860035  82.9496861  64.1062069
  34.0220428  83.8449192  63.7959194  34.7354674  82.5241566  63.9897585
  90.1992130   5.1642585  88.3543682  90.6837273   5.7043409  87.7300453
  89.3606949   4.9953467  87.9247284  69.8358822  92.7512074  86.8300056
  69.0849304  93.0324364  86.3073158  69.7119999  93.1794930  87.6770401
 108.0182076   5.1303226  50.2587605 107.5960922   5.3323799  49.4237614
 107.5259686   5.6368995  50.9047556  48.8890982  74.5938158  75.8596325
  48.4944344  75.4402256  76.0695410  49.0507984  74.1872215  76.7109680
  88.1507874   7.1908051  76.0086727  88.4182739   7.4525011  76.8896914
  88.1585312   6.2338817  76.0303402  81.0333633  34.7637033  64.3200731
  80.5366707  35.5728793  64.1985750  81.7483521  35.0075197  64.9079370
  94.6964741  29.8645043  18.4238338  94.8647785  29.4361567  17.5845337
  93.7856579  29.6489811  18.6243415   8.4139204 103.2710457  67.0622301
   8.5048205 104.1198158  66.6291380   9.0106177 103.3181858  67.8092003
  47.1475363  80.2030182  60.3389168  46.9190884  80.4330158  59.4382811
  47.1321964  81.0360718  60.8101034   6.8740040   8.5710490  43.4972143
   6.5295339   7.6943529  43.6674356   6.3584757   8.8914031  42.7570534
 110.3728008  74.4602966  90.6957912 110.0114727  74.6085072  91.5697002
 110.5694008  75.3371286  90.3660297  90.6373310  31.8928409  59.4273853
  91.3311100  32.4714708  59.1110134  89.9594593  31.9408154  58.7532759
  18.0128670  61.6235399  65.5284834  17.6868415  62.3808956  66.0146475
  18.4758806  62.0004272  64.7802830  97.2193527  17.7672613  65.5249929
  97.4651718  17.8486180  66.4465046  97.5427628  16.9043458  65.2661180
  87.2958088  29.8071575  42.6912212  87.5300026  29.5712686  41.7935944
  86.3852978  29.5264459  42.7828407  12.2706330   6.9160020  44.0294933
  11.3990068   7.2959709  44.1395998  12.8542757   7.5174761  44.4919014
  93.8606453  12.0645142  68.6619806  93.2427788  11.3355994  68.6057854
  94.0955639  12.1084499  69.5888662  76.5768433  99.8658276  36.1807179
  76.7299509 100.0980091  37.0966196  75.8776331  99.2129040  36.2128115
  81.9210815  84.3298149  42.6374054  82.1895885  83.5412884  43.1089687
  81.5939331  84.9168015  43.3190536  49.5509195  89.4125080  51.4144278
  48.6301947  89.6684742  51.3598728  49.9444485  89.7619915  50.6149054
  87.4924088  28.6532140  34.4452286  87.1715736  29.2428589  33.7628722
  87.3042583  29.1104865  35.2648211  51.6476345 104.6078300  59.8124075
  51.9877195 104.0984058  59.0768385  51.5726852 105.4993248  59.4720173
  98.5612679   6.9355083  34.7068834  97.8122044   7.5163811  34.8400378
  99.0414619   7.3272777  33.9773893  29.6866012  82.5222206  66.8224239
  29.2812586  81.7907047  67.2880507  29.6676445  82.2602463  65.9019709
  52.4208355  90.4218769  57.4733639  53.1265545  91.0680485  57.4479198
  52.8701687  89.5785046  57.5286293  19.8855793   5.2492809  31.4742923
  19.1357267   4.7596532  31.8122530  19.7878778   5.2104449  30.5228829
 109.4304085   6.5132892  53.4953690 108.6285305   6.5643299  52.9751539
 109.8264217   7.3806095  53.4107447  77.8660679   8.2345849  63.4376001
  78.6782217   8.7399143  63.4018040  78.1382990   7.3639137  63.7275219
  93.5307503  13.5971189  85.7911777  93.7070274  13.0126154  86.5284157
  94.3644619  14.0394723  85.6315708  78.6830950  19.3133032  73.7675047
  79.3467474  19.1713464  73.0924892  78.5001945  18.4388649  74.1112185
  87.5628281   0.5097387  20.8797574  88.3124638   0.7253449  21.4345503
  87.0457077   1.3147664  20.8523989  83.5990143  30.0571799  59.5674896
  84.3434238  29.9353719  58.9782095  82.8720760  29.6142364  59.1297865
  72.0116138  99.2383480  35.4612422  72.4103642 100.0935650  35.6219435
  71.0722208  99.4166470  35.4166913  79.5638847   2.2915247  86.4516735
  80.1015568   2.0038404  85.7138538  78.9251566   1.5886572  86.5709972
  80.0220013 105.6673336  74.8424673  80.0463486 104.8225021  74.3931389
  79.3965435 105.5411816  75.5559921  75.5626154   8.1516397  23.7166071
  75.3610992   7.5444365  24.4285941  74.8952484   8.8341260  23.7877584
  67.8360462  20.5637193  78.2943153  67.0787907  20.0257182  78.0633402
  67.6001215  21.4455628  78.0063486  50.2849293   6.4480740  56.9672871
  49.6865606   7.0466834  56.5202427  50.4867077   6.8847859  57.7948141
 112.0383739  30.7231951  52.8675795 111.2293053  31.1316180  53.1755352
 111.7489338  30.0646520  52.2360897   3.4250051  13.9461195  31.8157196
   2.7209160  13.4082568  31.4535117   2.9917789  14.5050740  32.4607897
 110.5961704  25.0468373  43.0450153 110.7534885  24.5977235  43.8755465
 111.0669613  25.8760953  43.1282234  92.4205685   1.6279308  82.3524094
  93.3259392   1.7074566  82.0520496  92.4847603   1.1609820  83.1855202
  35.0036693  96.9827175  77.0835495  35.2281880  96.0524082  77.1020746
  34.6753263  97.1674347  77.9634953  46.1387300  96.0293293  26.8712044
  46.5014887  95.2908707  27.3603988  46.8610477  96.3289356  26.3191819
  40.4348660 100.9125328  61.6800880  40.3738451 100.7186604  60.7447195
  39.7160959 101.5226173  61.8456268 107.8496552  34.5529366  71.0434294
 108.4246540  33.9791131  71.5497351 108.2917976  34.6515012  70.2002048
  93.1371307  22.8066993  58.2567120  93.1562519  22.0323801  57.6943111
  93.9545441  23.2648540  58.0613565  72.4490023  99.7919464  41.3699579
  72.2535896 100.6091690  40.9114933  72.7058649 100.0666332  42.2501850
  78.9803743  18.5131502  51.4857864  79.2816830  17.7587938  51.9921398
  78.8573027  18.1730354  50.5995560  90.3992653   0.5556428  48.1588793
  90.5897331  -0.2523125  48.6354971  89.7294712   0.3059657  47.5222731
  44.6012688  95.2758503  71.9280434  43.9037943  95.9307003  71.9585657
  45.3984547  95.7821083  71.7717600  12.9788065  59.1617584  87.0407486
  13.6413431  59.5351410  86.4594936  13.3044314  58.2846355  87.2428894
  76.8345308  12.7750170  73.0551147  77.7084970  13.0526757  72.7806664
  76.4884329  13.5217571  73.5438108  55.4170418   3.8234201  30.8660531
  54.6016026   3.7597531  31.3632822  55.3876734   4.6935382  30.4682302
  66.1360788  24.5548391  59.5005941  66.1699963  25.4624271  59.1983318
  66.6065216  24.5622730  60.3341770  58.0113173 105.1953030  67.3666763
  58.4464645 106.0314846  67.2003317  57.2893572 105.1718903  66.7386198
  12.9757118  21.3514614  48.5771370  13.5569501  21.4223814  49.3343449
  12.3750722  20.6408906  48.8019705  47.8461075  29.6252894  55.9044218
  47.8349829  29.0208316  56.6465378  48.1885862  30.4425836  56.2663174
 101.7364216  32.8821778  21.1138535 102.0013809  33.5944176  21.6958690
 101.7498302  32.1021199  21.6684389  42.0900059 104.1019821  51.6563988
  41.6583300 104.3297863  52.4797964  42.2115612 104.9398708  51.2098694
  14.0562153   4.0111971  51.9065428  13.8413954   4.9085388  52.1612215
  13.6576700   3.4674436  52.5860453  67.2036648  17.3055398  48.6950159
  67.8846788  16.7412269  48.3289480  66.4443874  16.7311776  48.7941933
  95.9434986   8.8248175  44.7491503  95.3280258   8.1530118  45.0425911
  96.8072701   8.4453470  44.9108028  62.1741152  92.8238869  77.4705267
  62.5798321  93.6908436  77.4749327  62.9055882  92.2177315  77.3532724
  66.2486887  16.6590774  57.7358007  66.5929079  15.8610368  57.3347044
  65.3090668  16.4979231  57.8216553   9.6387219  19.0875363  15.8515787
   9.1609538  18.2654035  15.9614277  10.4763687  18.9382041  16.2900758
  64.6581888  78.1767702  51.6144609  65.4871750  77.6982832  51.6225386
  64.9026823  79.0757847  51.3948488  47.3600340  66.7769623  60.4265594
  46.6777754  66.5876341  59.7824287  48.1191874  66.2779427  60.1250696
  51.3936949   6.1820847  33.5403228  51.8736172   7.0096588  33.5082412
  50.4879665   6.4227480  33.3454752  10.2659452  15.4036605  83.2354164
   9.4990802  15.0724816  82.7680111  10.2815914  16.3399112  83.0368614
  96.1118793  29.3822980  43.2151794  95.5185223  30.1324511  43.2530451
  96.3117218  29.1885233  44.1310120  73.8991165   7.2903246  62.9169083
  74.5160151   7.8118247  62.4033880  73.2015419   7.0685357  62.3001146
  10.0254297  16.5364742  37.5555515   9.7451711  15.6632864  37.2812700
  10.7882619  16.3793981  38.1120110   2.4588479  31.7058921  39.6608353
   1.8607593  32.3905993  39.9603343   3.3163744  31.9766450  39.9888206
 102.1084404  85.8327293  25.6771731 101.6773415  86.5997314  25.3002048
 102.8940678  86.1821270  26.0978198  32.3830032  55.4830837  85.6541348
  31.6349673  55.1485157  86.1488438  32.0118308  55.7590389  84.8160934
  89.9625587  34.0894985  26.4393950  89.9743748  33.6059999  27.2654247
  89.6413040  33.4573412  25.7964277  53.3342171  77.2882175  68.2463789
  53.9225149  76.5539312  68.4223318  53.8775206  78.0660582  68.3729362
  75.4933882  27.9624844  71.6189051  75.5831337  27.8723216  70.6701946
  75.7630634  28.8627768  71.8005085  93.1888390  23.7506247  35.0591183
  93.9229584  24.3448806  35.2145767  93.4926891  23.1725454  34.3593097
  22.1726203  27.9815674  50.4439259  21.3049722  28.2505417  50.1421452
  22.2447586  27.0646119  50.1789379  15.0566232  20.9691262  73.1185007
  15.3457713  21.8436933  72.8581953  14.6697307  20.5987740  72.3251629
  39.5686150  19.2505777  67.9891682  39.1327691  18.5342693  67.5274611
  38.9258575  19.9598658  67.9920578 111.7503262  29.8647356  73.0726624
 112.2027016  29.7643852  73.9102268 110.8849812  30.2004504  73.3065510
  59.1785336  53.2088518  90.7055855  59.7610044  53.5360050  91.3910961
  59.5746565  53.5134792  89.8891735  12.7262115  17.3007941  24.5974517
  12.4805677  16.6286504  23.9617538  11.9368327  17.4340904  25.1221871
  55.1918125  27.9335666  26.4675260  56.0186577  27.8167963  25.9996319
  54.8160791  28.7310147  26.0945201  44.8848629  27.1180820  48.1855774
  45.8002281  26.9068837  48.3692598  44.7020912  27.8843498  48.7293243
  28.8338184  13.2977438  32.9615760  28.9335203  12.3539579  33.0863094
  27.9712200  13.3962655  32.5585246 104.3814754  10.0407457  34.4970012
 105.1736259   9.5631009  34.7431517 104.6351624  10.9627867  34.5383930
  18.1202054  26.5160561  42.3166895  18.1643140  26.4322972  41.3641787
  17.4069071  25.9326386  42.5756502  19.8696744  22.4512005  33.7771130
  19.5853686  22.1812844  34.6503544  19.2666388  22.0071268  33.1809783
  30.5787253  61.6800594  27.2573423  29.6987009  61.6066599  27.6266694
  31.1514091  61.7699766  28.0190396  83.7969017  99.9479866  62.6529646
  82.8614712 100.0908184  62.7971506  83.8651085  99.7272396  61.7240667
   7.0705086  26.3801384  50.2986956   6.8330723  26.7722559  51.1389923
   6.2391233  26.0809851  49.9305439 109.2971611  35.0449204  68.8310623
 110.2045155  34.9765992  68.5339451 109.1117859  35.9839416  68.8206482
  25.4898906  42.9526854  62.2223616  25.4300761  42.0094395  62.0708799
  26.4007187  43.1698799  62.0237350 108.1179714  15.2845645  42.1901941
 108.2202816  15.8330643  42.9679537 108.7893486  14.6087396  42.2837162
 100.1898289  21.4281464  56.4387131 100.5054092  22.3046637  56.2188196
 100.9851170  20.9215522  56.6033697  96.0734558  26.6177511  37.6433706
  96.5401459  26.3539934  38.4363794  95.6772041  25.8092284  37.3185492
  88.6823750   9.1430634  30.1142263  88.6234570   9.7577113  29.3828130
  89.4724369   8.6330861  29.9354625   7.2001237  19.6555376  32.6665282
   6.3955623  19.1997528  32.4191952   7.3798442  20.2406430  31.9306016
  53.5762024  54.7842741  88.1505489  54.1484022  55.5502033  88.1039906
  53.1987429  54.7136354  87.2737598  36.3042259   3.3756194  72.8575802
  36.6911602   2.9649067  73.6307716  36.3213849   4.3130347  73.0504227
  50.2138472   5.0293463  54.6554279  50.7848215   4.2632177  54.5982456
  50.3856564   5.3917676  55.5245447  40.9679413  12.5434923  87.9835224
  40.4570055  13.1211376  87.4165058  41.7925835  13.0099475  88.1199646
   7.9214954   4.8773175  19.1122556   7.1175027   5.1195955  19.5717430
   7.6201385   4.4216096  18.3262885  96.3486099  19.7064102  79.4688368
  96.9532299  19.5533586  80.1949501  95.6824207  20.2906036  79.8309660
  16.3334513  39.0423870  69.2108202  16.8827724  39.2834544  68.4649229
  15.5123270  39.5123029  69.0653324  51.5642071  57.7085590  89.1691399
  50.9177303  57.0038366  89.2098522  51.2011909  58.3989429  89.7239590
  25.3831673  27.0438361  69.3595171  26.0014677  26.9932008  70.0884676
  24.9439526  26.1933541  69.3584728  17.2444177   3.6519611  39.8196697
  17.1422052   4.5404321  39.4784880  17.6778686   3.1726328  39.1135550
 102.7230263 100.8746815  72.5728321 102.4052620 100.8062363  73.4731531
 103.0088425 101.7842865  72.4882174  37.9749107  77.8185987  21.8784308
  37.2834373  78.4591818  21.7118478  38.7822819  78.3327770  21.8805766
  21.6270614  40.4479504  27.2672319  21.6727042  41.3940382  27.1291637
  22.4565053  40.1155281  26.9240785  21.1764598  36.7272043  43.9765406
  21.1159539  35.9920740  44.5865870  20.6323028  36.4670587  43.2332754
  57.9740381   4.6277824  55.1421642  58.8019896   5.1038462  55.2060795
  57.7229118   4.7065115  54.2218542  12.1078503  28.7242746  42.7162790
  11.9305515  27.9911566  43.3056307  11.5403342  29.4276762  43.0315351
  82.4821758  99.0948772  47.4068022  81.6312599  99.4649506  47.1717882
  82.3566341  98.1479168  47.3457146  17.7541053  77.0316553   1.7532456
  18.0595374  77.4007940   2.5819057  17.3091841  77.7582169   1.3169132
  80.2486706  90.9990788  51.2322950  80.9526443  91.6464329  51.2723303
  79.4448042  91.5155697  51.2894392  16.4618361   4.4995633  35.8029985
  15.6609690   4.1595376  36.2020302  17.1428239   4.3354034  36.4553308
  37.5437832   6.3137287  40.4398346  37.8721786   7.0922959  40.8895254
  37.0146561   5.8625221  41.0976124  -0.1148982  19.9939811  19.4818676
   0.7456579  19.7486389  19.8216939  -0.0836820  20.9484911  19.4172966
 104.8000717  93.1836319  40.8876657 104.0429783  93.7607193  40.7876158
 105.5105495  93.7653351  41.1579943  88.1276894 100.2634811  39.6305156
  89.0448475 100.4921627  39.4796348  87.7470493 100.2091885  38.7539339
  68.3345795  95.5423355  63.0125284  67.7211332  94.8076057  63.0220032
  69.1994667  95.1324081  63.0252981  73.3547497  95.4011631  33.1584907
  72.9142714  95.9317875  32.4946737  72.7706814  95.4321766  33.9162064
  13.6789572  32.1851420  33.7943220  13.4587467  31.6549230  34.5602226
  14.5274603  31.8487239  33.5060525   3.0414560  62.4553394  38.9356041
   3.4373257  61.9750118  39.6627927   3.7062246  62.4381876  38.2471132
  36.9541693  47.1426153  50.0392675  37.6423454  46.7018223  50.5376053
  36.2001562  46.5562868  50.1018381  26.9384813  71.4089727  58.3796453
  26.5944815  71.8866634  57.6248550  26.9096375  72.0419264  59.0971184
  93.9339352  46.4109135  71.1928034  94.5487499  46.7091846  70.5225277
  94.1145802  45.4753685  71.2842226 103.1944942  60.5122519  76.4532614
 103.2867718  59.5755529  76.6273642 103.9346027  60.9144258  76.9079304
   5.0396144  44.9290371  31.1389589   5.6232017  44.2469454  30.8066797
   5.5271322  45.7432222  31.0138226   1.8913178  21.8663549  53.2548666
   1.7861940  22.7233219  53.6681271   1.8575367  21.2442493  53.9815521
   7.5467867  61.8878555  47.0323038   7.6034957  60.9408808  46.9048071
   8.3742833  62.2256327  46.6896868 104.1000366  37.1732974  34.4351315
 103.6823654  37.0029354  35.2793837 103.6905479  36.5498924  33.8351989
  34.2729211  44.0673828  51.0173082  34.7751570  43.7920094  51.7842245
  34.8926544  44.0058327  50.2904177 112.4040890  48.3342075  30.0055552
 112.0226765  48.6652803  30.8186650 111.6611195  48.2552958  29.4072223
  17.4328148  44.9282169  17.9668868  17.4225402  45.5775404  17.2636735
  18.3472586  44.6510839  18.0236506   4.1277951  35.2054453  23.3946896
   4.5378235  35.0122261  22.5516152   4.4753709  36.0631704  23.6390901
  92.5268555  36.7073178  11.3453257  93.4200954  36.6957617  11.0014796
  92.2828960  35.7839465  11.4093435  98.0313587  13.9823627  39.3953538
  98.1171417  13.7462819  38.4716988  97.9455185  13.1443024  39.8497963
  20.6826639  14.2041886  45.3128576  21.6394234  14.1759753  45.3058434
  20.4472852  14.5610309  44.4564199   0.4795439  41.5784073  45.2024555
   1.2699682  41.7078304  44.6783304  -0.2074068  42.0347643  44.7165823
  84.4583893 103.8108063  52.5753832  84.1226006 103.6408901  53.4555006
  84.4517899 104.7647381  52.4965477  53.4606028  94.6549988  87.7225208
  54.1863489  94.6390438  87.0985985  53.8591480  94.9354076  88.5463905
  18.3744705  45.8048964  31.2000489  18.5232425  46.3958836  31.9381738
  18.5586476  44.9332809  31.5501976  26.3176584  52.0331335  52.9850817
  26.6859579  52.9095840  52.8736544  25.5889750  51.9989681  52.3653364
  22.2419643  53.4139633  38.4121799  22.6043105  54.0498352  37.7952504
  21.6104698  52.9127073  37.8962469   2.8936443  44.6490431  47.2389746
   1.9498834  44.7392464  47.3709202   3.0293009  43.7097979  47.1138668
 102.4391556  42.9236937  46.7536163 103.3246040  43.2423067  46.9288301
 101.8920994  43.7086344  46.7823744  86.0380459  41.3102436  69.0852880
  85.1260185  41.2959862  69.3754959  86.0779285  40.6552219  68.3884478
  33.2422018  73.7353134  57.8517723  33.7211275  72.9122019  57.9484463
  33.4271383  74.0161943  56.9555950  19.6034515   8.7547904  28.3355904
  19.0672910   9.1009045  27.6221704  19.2667592   9.1877943  29.1200519
  20.0181293  69.3772125  40.8478975  20.5831218  69.8590040  40.2438354
  19.9025416  68.5208082  40.4362679   5.8205658  34.8753142  61.4509678
   6.1138630  34.3999982  62.2283268   6.5904951  34.9037910  60.8829641
  44.3271112  32.5794554  19.2258203  44.5125294  33.4327579  19.6179020
  43.5033083  32.3047733  19.6284771  35.6934357  10.1944733  53.0481529
  35.5699563  10.1697052  53.9970303  35.9138012  11.1065602  52.8590202
 106.5053177   7.9402471  42.4847126 106.0696697   8.6984491  42.8740311
 107.0335102   8.3057654  41.7750311 105.9704208  41.2676048  19.8631155
 106.0061550  40.4994106  20.4330540 105.0497913  41.5295076  19.8715937
  27.6913309  29.4728661  58.0149984  28.3568621  29.2921925  58.6788177
  28.1317854  30.0405145  57.3825359  33.9444256  36.8577409  42.4297476
  33.8450527  35.9079623  42.3643303  34.5944166  36.9834995  43.1210709
 106.4110947  46.5000534  48.1968451 107.2801304  46.5738297  48.5912752
 105.8315945  46.9561291  48.8070917  37.2753763  35.6276727  32.3925138
  37.0169759  35.3938723  33.2840276  38.0704689  36.1491561  32.5025678
 101.1855793   2.5171736  24.2092133 100.4589367   2.3727702  23.6031055
 101.7730808   1.7764282  24.0596151 104.9702549  32.8563380  63.7811613
 104.3324947  32.2709131  63.3727884 105.2541351  32.3901701  64.5674992
 105.4854679  37.1751785  38.3790326 105.8267593  37.3030281  37.4939322
 105.7367611  36.2797761  38.6056161  78.4132862   5.5052614  48.6799335
  78.7903357   4.9593747  47.9899502  78.8597298   6.3471889  48.5900688
 102.4661827  36.7023945  27.6351333 102.4450207  35.7488847  27.7164125
 102.6782894  36.8596959  26.7150807   9.3181944  27.4931645  68.5019112
   9.9939030  28.0224633  68.9255810   8.4958744  27.9258037  68.7317944
   8.4967971  30.2104020  15.6203949   7.5545526  30.1707053  15.7841969
   8.6590308  29.5131159  14.9850154  14.8766994  15.4949558  38.2519412
  15.2891505  16.3361406  38.0556631  14.8407543  15.0432920  37.4087691
  99.0402222   6.1844575  86.0419750  99.1618919   6.5207088  86.9298744
  98.0926895   6.0827208  85.9521389   9.7497171  93.9534664  47.9399204
  10.5283654  94.2418766  48.4161091   9.0158957  94.2793274  48.4610224
   5.5712229   5.0855923  51.3595104   5.0890929   4.6641907  50.6480312
   6.4924449   4.9592385  51.1323166 104.4433403  26.2738609  31.3561749
 105.2479362  26.1972713  30.8433461 104.3922329  27.2020435  31.5844226
 104.1506672  49.9191570  43.6997557 104.3124008  50.7087040  43.1833363
 104.9995613  49.7096682  44.0892744   3.9151901  64.7495270  70.2337790
   4.7724882  65.1368666  70.4105330   3.3087125  65.4897404  70.2561808
   5.0518411  24.4771242  62.0635843   5.1159745  24.8663902  62.9357004
   4.7054163  25.1791787  61.5128183  97.3535442  58.4200573  51.9432259
  97.4695015  59.0402269  51.2233829  96.8905735  58.9185381  52.6165819
  90.3680611  55.6107283  63.8066530  89.6214008  56.1508131  63.5477304
  90.4760838  55.7839155  64.7418356 111.2308407  12.8293562  63.1002378
 112.1113873  12.8988099  62.7313852 110.8863449  13.7218118  63.0674267
  25.0447750   4.7945908  18.2740521  25.5653524   5.3861439  17.7306402
  25.3943491   4.9109596  19.1575050  32.2841024  71.9976902  41.4913654
  32.6595998  71.8971252  42.3660755  31.7380095  72.7813482  41.5537930
 104.9140453  90.3534317  82.7894020 105.0982475  90.4703331  83.7214088
 105.7245827  90.6120300  82.3507786  94.7225761  98.9400101  49.2496824
  94.5387077  99.0702343  50.1799870  94.9022579  98.0032158  49.1698933
   6.8923259  70.2828217  64.4951010   7.0003831  69.6665955  63.7706566
   6.3085425  69.8337603  65.1064682  50.8995199  35.0758672  82.8425026
  51.5565538  35.2317977  83.5208988  50.7186747  35.9432554  82.4803352
  16.2679040  12.4569488  45.2355385  15.9314013  11.7045176  45.7222080
  16.9872344  12.1020794  44.7131729  24.6836472  24.8876691  53.0932045
  24.5688152  24.2700338  52.3710060  24.2082691  25.6709886  52.8163290
  73.5591936  63.6958551  34.5608807  74.2454195  64.3613052  34.5108438
  73.0042887  63.9782333  35.2879095 104.5313931  56.5757036  45.7366180
 103.8590050  56.1888170  46.2973738 104.0505600  56.9006348  44.9754047
  98.5622120  66.9222212  76.3217306  98.6196232  67.7649355  75.8714342
  99.3943596  66.4903402  76.1287165   4.2539653  45.5344868  53.7142086
   5.1024443  45.0923729  53.7433672   4.1095749  45.7146645  52.7852726
  26.4906716  27.6208353  45.3192568  27.1355557  27.4181676  44.6415520
  25.8011246  26.9683862  45.1965046  30.7306528  23.1914186  37.4083924
  30.1430297  23.5380077  38.0798173  31.5901875  23.1720877  37.8291726
  16.1145926  25.0341892  21.8579769  16.8839169  24.4812083  21.9942927
  15.5511272  24.8501396  22.6095510   3.0757830  83.6172581   7.9318184
   3.5492936  84.1354370   7.2810394   3.4661192  82.7451897   7.8737432
  13.3895373  54.7968435  39.1979909  13.1533778  55.0395393  38.3026934
  12.6166916  54.3437386  39.5350957 104.8401546  55.3602171  25.5562925
 105.3010654  54.5851851  25.2351642 104.7619724  55.9273767  24.7891879
  39.5193124   8.6038315  32.9118228  39.4877791   8.8775313  33.8285160
  40.2943516   8.0449533  32.8552556  38.6277771  12.1854162  39.9378967
  37.8703666  12.5246263  40.4148674  39.2309594  12.9269576  39.8877001
  99.0511608  25.3333497  48.1578875  98.8115406  24.8340845  48.9386225
  99.7214699  24.8009706  47.7295303 110.3543949   7.3473394  42.9628229
 110.4584980   7.5439852  42.0318413 110.2375221   8.2025129  43.3766413
  22.4022150  24.4088054  20.6987882  22.7469182  24.0729284  21.5261936
  23.0688548  24.1800380  20.0511098  52.6435041   2.2987752  38.1225491
  52.9992628   1.6997062  37.4662066  52.2281647   1.7272539  38.7683725
  14.4012511  48.7818909  63.9059210  14.4321024  49.4735956  63.2449913
  14.2566991  47.9787922  63.4055567  11.0522127  27.9088497  28.5387158
  11.0488415  27.1200562  27.9964733  10.1263452  28.1045151  28.6826444
 112.8679256  15.8458602  54.3136692 112.1962446  15.5667746  54.9359131
 112.3801957  16.0817742  53.5245562 107.4374199  50.3015566  59.8557091
 108.2767010  50.7237482  60.0389957 107.6262188  49.6935034  59.1409636
   8.1867433  72.9127789  48.0088329   8.8007677  72.3010349  48.4150076
   8.3295691  72.8064585  47.0683432  96.6545677  75.2308846  79.2337275
  97.2145081  74.4551945  79.2652702  96.5820217  75.4361725  78.3016157
  32.7186227  52.5200558  50.4244137  32.6833224  52.4064398  49.4746351
  33.2874179  53.2789660  50.5538702  41.9987917   7.2888011  32.6374555
  42.3895359   6.7000556  31.9917560  42.7459717   7.7249914  33.0469561
 106.3213158  41.3396358  39.2438602 106.7339706  41.0956001  40.0723505
 105.3977203  41.4623117  39.4633007  99.4425201  42.7821493  29.9540520
 100.1831150  43.3868313  30.0000072  99.8419762  41.9124556  29.9714541
   9.4343138  23.4181619  77.0897341   9.0067947  24.2158079  77.4015331
   9.0188956  23.2377195  76.2464666   0.0640661   6.7623127  58.3258724
  -0.6203955   7.4177891  58.4603786   0.6895429   6.9205940  59.0329504
  21.6448641  26.3692451  22.5844884  21.6933846  25.7716727  21.8383074
  22.5555158  26.6039395  22.7629948   7.1003711  18.5897803  53.5387993
   6.6016561  17.7747190  53.5952806   7.9665899  18.3199048  53.2337379
 107.6131058  23.3444548  29.4082761 107.5496483  23.4470725  30.3578401
 106.9309425  23.9181089  29.0592575  33.2764316  68.7563944  91.0068321
  34.0815878  69.2699051  91.0721016  32.7253294  69.2511082  90.4003906
  20.4578900  32.6244855  37.3060322  20.3494453  31.9258952  37.9513550
  21.2846780  32.4205446  36.8689299  11.3409626  49.4787169  70.9562063
  11.3945401  50.3716803  71.2967491  10.7021987  49.5314264  70.2452660
  24.3529963  53.2153416  57.9544210  23.8664341  52.8478527  57.2165632
  24.2200565  52.5881386  58.6651802  14.1297734  15.6181967  64.7467756
  13.6797166  16.4356208  64.9600840  14.9146175  15.6268787  65.2946615
  20.5919909  51.8829727  70.1981306  19.8058498  52.4264336  70.1446438
  20.8592892  51.9380713  71.1155987  17.2487283  34.5925903  81.7162704
  16.9866204  34.2815447  82.5827503  17.5082326  35.5031252  81.8570423
  16.8743968  26.8969870  52.5365543  16.6419375  26.9580555  51.6100216
  17.8301382  26.8443489  52.5407362  85.0697899  23.0857563  49.3080139
  85.7930660  23.2021475  49.9240923  85.1964760  23.7757587  48.6568022
  14.3542898  44.5482063  45.6422329  14.0711224  45.3603411  45.2221298
  14.9170423  44.8343086  46.3617325  97.3499870  35.4233646  54.6381092
  96.6158867  34.8976612  54.3203545  97.7266693  35.8109760  53.8481092
  24.0174937  38.7154126  21.1733723  23.6954594  38.9264369  20.2970195
  24.8619533  38.2907605  21.0224104 103.0964279  19.0871739  34.1869092
 102.2750378  19.3248951  33.7567306 102.8875065  18.2941020  34.6804929
  40.0791931  54.0177107  82.9709244  40.5923653  53.2130384  83.0443573
  40.6036139  54.6783638  83.4234238  95.1529789  57.3432732  64.9500179
  94.7627449  56.8802309  65.6913328  95.8901501  56.7931223  64.6851683
 109.7823429  60.8521891  27.9802966 110.6337070  61.2126446  27.7323437
 109.1606522  61.5553713  27.7925086   5.7279301  24.4953966  47.1002626
   4.8038864  24.7391033  47.1548843   5.8694482  24.2987990  46.1742210
  22.8826237  60.2853394  25.6333113  21.9855595  60.5081463  25.3845787
  22.9096961  59.3290758  25.6008005  19.8076570  51.1022139  35.0825810
  19.0090322  50.6154108  35.2861881  19.5124292  51.8269682  34.5313954
  18.9956856  74.3087149  59.0499449  19.7091806  74.5206738  58.4480858
  19.2763150  74.6699572  59.8907661  31.5643573  73.4569740  50.0214863
  31.8591714  72.7056742  49.5068407  32.3548460  73.7721395  50.4596996
  21.2942004  56.8584490  35.9600091  21.9093275  56.4356375  36.5592408
  21.7585278  57.6356173  35.6491327 106.6118336  33.3717704  45.2885103
 105.8126450  32.9333878  45.5806541 106.5760517  33.3233523  44.3332052
  69.4408083   9.2608410  75.1071310  69.6491098   8.3305919  75.1936150
  68.5430384   9.2754251  74.7754335   9.6760124  15.0682676  42.7166748
   8.9871079  15.4675126  43.2479429  10.4865909  15.2716291  43.1834030
 110.0774765  32.4475932  85.1438141 109.3583584  32.0182896  84.6803570
 110.2832699  33.2142949  84.6089745  11.5899897   2.9532325   9.0525812
  11.4275444   3.5543633   9.7795510  11.0990024   2.1637431   9.2803311
   4.4565901  72.7100229  75.9654713   4.4139495  73.6558104  75.8244038
   4.6450546  72.6153803  76.8991518 100.7018375  49.7767258  76.7069769
 100.5241489  48.8418770  76.6034508 101.6038704  49.8152971  77.0249176
  89.9686432   3.2850575  30.8676600  90.8991432   3.5095480  30.8667302
  89.9452019   2.3599604  30.6229591  34.5268202  65.1032352  56.3561296
  35.2136993  65.7442379  56.1729717  34.0845299  65.4419374  57.1345234
  12.9932392  10.2110171  27.6971722  13.2490039  11.0427237  28.0960202
  12.8241539  10.4271269  26.7801452 109.0974522  41.7923975  34.8938704
 109.0029621  42.7434731  34.9463701 108.4221745  41.4518595  35.4806089
  29.0010500  39.8524523  53.7491179  28.1569386  40.2541590  53.9548826
  28.7920380  38.9365625  53.5655642   5.8734602  25.5760407   3.6217239
   6.5301496  25.9796381   3.0541849   5.7235026  26.2222862   4.3117332
  21.3367009 103.8856030  41.6181231  21.3910151 103.8138294  42.5710821
  22.2447634 103.9889812  41.3335752  53.9591551  72.3617220  28.6178613
  54.6523809  72.4506950  27.9638338  54.1066170  73.0881262  29.2235208
  22.6019120  54.7033978  16.0588920  22.0498848  54.7591162  16.8388867
  22.0450974  55.0213242  15.3481793  88.8681126  72.3767281  46.9932365
  89.5006561  72.2649527  46.2835693  88.7094784  71.4891863  47.3146820
 111.1173013  94.0350325  91.7593602 110.2108720  93.7556584  91.8880615
 111.3670113  93.6570151  90.9161622  17.3099053  50.0360250  74.2319584
  17.3728716  50.6327486  73.4861803  16.3908553  49.7689676  74.2480898
 109.5728397   0.2026446  52.1581459 108.8794899   0.7720494  52.4917269
 109.1472435  -0.3200736  51.4785337 112.3483562  52.8158951  37.9935861
 111.3951778  52.8464890  37.9114413 112.5033379  52.3369360  38.8077164
  96.7974758  53.6163282  32.8216171  96.4507198  53.0568838  33.5166121
  96.1371326  53.5760260  32.1298385  92.3031044  55.7141399  49.0878391
  92.2358513  56.2174368  49.8992586  91.5159225  55.1696539  49.0777731
   6.9814497   7.8002304  23.3767653   6.7086786   6.8915367  23.5036635
   7.9021484   7.8126734  23.6382818  25.2775550  65.8902359  17.5714326
  24.4494462  66.1496401  17.9753804  25.1558280  64.9677849  17.3467100
 106.0285091  25.3550982  21.2627316 105.5773449  24.6195769  20.8483672
 105.8546162  26.0986280  20.6855345  21.6355920  60.8387756  90.9335423
  22.4025893  61.3431740  90.6623936  21.3558030  61.2494898  91.7516327
  49.3585014  15.7333624  49.0150738  48.6648655  15.1536119  48.7004519
  49.0405321  16.6149449  48.8203049   7.8647059  51.6459846  34.9407387
   8.3554143  51.5611601  34.1232777   8.5347432  51.7944670  35.6079984
   7.1922469  42.9128551  70.2610350   6.7814136  42.0541811  70.1604080
   6.4749205  43.5363674  70.1474190  81.7701244  54.8179674  43.5592794
  81.5761471  55.6145430  43.0652380  81.5956593  55.0529146  44.4706488
 107.1254539  76.4605284  33.4671164 106.3120937  76.0351562  33.1955767
 107.6975155  76.3936996  32.7025819 101.8485928  57.5917673  56.7760658
 102.1588993  57.7859259  57.6605129 102.2036552  56.7241287  56.5827560
 103.3226395  54.9452734  50.3739500 103.4130192  54.1708183  49.8187113
 102.3795128  55.0317240  50.5127430  14.6200240  66.7508984  28.7902522
  15.1764417  67.4963045  28.5644221  14.9468291  66.4570045  29.6405792
  30.0243616  34.8121047  54.0392923  29.3755198  34.1110206  53.9783382
  29.5206094  35.6162596  53.9135933  55.2459097  24.0421009  63.8524437
  55.6843042  24.7206759  64.3658447  54.8613310  24.5123649  63.1127262
 111.2328911  11.3145518  27.9365373 111.0007477  11.2119007  27.0136046
 110.4071999  11.1953819  28.4058785 108.3116341  49.4249821  76.3708448
 107.8240776  49.2996502  77.1849728 109.1504097  48.9902020  76.5246296
  38.4517550   0.1962883  79.4277954  38.6200595   1.0610595  79.8020649
  38.9105988   0.2054236  78.5877895 109.3036652  64.4259691  16.6422987
 109.1692734  64.6517897  17.5627208 110.0546360  63.8324738  16.6484737
  42.1892691   5.3383207  72.4794197  41.5328169   4.6882093  72.2290945
  43.0261660   4.9340615  72.2504902  15.6071270  33.9292932  44.4545794
  14.9662316  33.2403278  44.2790461  15.3486478  34.2859817  45.3043985
  26.2711310  35.2895451  55.5097389  25.6009817  35.8929777  55.1888037
  26.6657209  34.9261904  54.7169542  10.9434128   3.7120044  70.5017853
  10.6678176   3.7443507  71.4178801  11.6014564   4.4028944  70.4250956
  13.5915685  28.1173635  29.5257974  13.8411176  29.0108418  29.7617006
  12.7916431  28.2202983  29.0102839   3.6915550   7.7214217  57.8574562
   3.8243389   7.0770735  57.1621752   3.3198449   7.2186047  58.5821915
  67.2880507   3.2426995  87.3384285  68.0433989   2.6739413  87.1894455
  66.7377615   3.1174782  86.5652943  17.5609148  34.6377110  20.3355885
  18.5120964  34.5310307  20.3458500  17.4099767  35.4818845  20.7608151
  27.4613476   3.0329788  56.2278938  27.2209501   3.8711590  55.8330584
  26.6466451   2.5305936  56.2380838  10.8567500  52.4327707  47.2536373
  10.6936276  51.7455769  46.6075850  11.8064618  52.4286795  47.3730612
  24.0229869  28.0064487  26.1296082  23.1803656  27.7838731  25.7337785
  23.8655400  27.9558492  27.0724154  43.7498140  75.2935982  33.1817532
  44.1563320  75.0886774  34.0237641  42.8350782  75.0322485  33.2874966
  17.5276017  83.0486393  31.3169360  16.9913852  82.9738045  32.1063066
  17.8983259  82.1745491  31.1954665 102.1719646  41.4883423  32.0426941
 102.3468781  42.1714544  31.3953948 102.1289349  41.9547510  32.8774643
   5.3102005  21.1421442  72.1466017   4.4294608  21.1272144  72.5211763
   5.1682854  21.2352538  71.2045717  20.4733753  57.0965195  60.6049442
  21.0102820  57.1000099  61.3973761  19.5821214  56.9463873  60.9201527
  53.5289478  58.4416628  61.1623955  52.6044130  58.1943035  61.1455965
  53.6943579  58.8092184  60.2941942  11.0621619  45.8714151  89.8142338
  10.4207206  46.1321115  90.4751587  11.4788318  45.0909472  90.1795959
 112.8433595  27.2186613  16.8171370 112.1832114  27.0985651  16.1344862
 112.3661725  27.6188540  17.5440276  86.1286163  49.6472120  70.0326443
  86.4696217  50.4274607  69.5954227  85.8419609  49.0783167  69.3182039
  21.0142136  34.1729665  45.2004719  20.0966048  34.4064617  45.3408527
  21.2064123  33.5338712  45.8866549  54.6871710  92.8430843  19.5551181
  54.3848848  92.5496292  20.4146171  55.3779554  92.2236538  19.3198431
  16.7850876  35.7933521  46.8608189  17.1820223  34.9546409  47.0958424
  16.1240268  35.9432292  47.5366640  99.4013786  11.1517584  27.6737857
  99.2598152  10.3984773  27.1004105  99.1647148  10.8366168  28.5460854
 108.2986355   7.9128420  46.2348175 107.5714684   8.1699127  45.6679201
 108.8312626   8.7041295  46.3148499   4.9658337  48.3439779   3.8559526
   5.7546765  48.1687355   4.3690312   5.1779705  49.1290617   3.3511078
  78.5216570  76.2127686  19.4186449  78.5464334  76.4314985  18.4870994
  77.9747391  75.4286385  19.4660914  78.8191462  28.0164790  70.6087685
  78.1471491  28.6941481  70.6823778  79.6266890  28.4487653  70.8866787
 110.6112576  40.3152370  57.2542191 110.7433510  40.0742340  58.1711149
 109.6656704  40.2466440  57.1223783 100.3067398  41.2257719  45.6369686
 100.9604454  41.7989159  46.0374737 100.3398418  40.4236984  46.1583233
  22.8914523  53.1559849  33.8000059  21.9923377  53.4262991  33.9864397
  22.9588747  52.2762108  34.1710615  86.5459347  90.1350689  16.5228879
  87.1332741  90.0944424  15.7681596  85.8223152  90.6908703  16.2336040
 102.4127483  73.5356569  78.8014698 101.7638588  74.1653061  79.1156483
 102.7975750  73.1705666  79.5982456  22.9266787  71.2031221  59.8117161
  22.2664309  70.5456686  60.0309467  23.6604333  71.0094976  60.3951073
  25.3699446  80.2783871  34.3558836  26.1898112  80.2751255  34.8498869
  25.4531670  79.5429993  33.7488294  54.4039345   5.2716702  85.4778576
  54.7373104   5.7541889  86.2343407  54.6763945   5.7925993  84.7224617
  14.0984619  44.1293430  40.9086132  14.2111516  43.9266777  39.9799252
  13.1894553  43.8953781  41.0962343 108.6967850  17.4484694  16.0675168
 109.0679550  18.0172229  15.3929925 109.0739727  16.5870941  15.8886552
  27.1215224  39.5262551  20.4198647  27.4976254  39.7953677  21.2579322
  26.7671680  40.3331423  20.0462317  42.6905584  49.1437244  15.7532883
  43.2276821  48.4549427  16.1448431  42.4549007  49.7103882  16.4878559
  97.3006916  18.1930566  22.3122525  97.4432850  17.2484314  22.2523952
  96.6634274  18.3831835  21.6237974  92.1881390   9.5495331  44.1009188
  92.0288944  10.1551533  44.8248672  93.1328487   9.5953292  43.9537287
  22.7124739   8.1209946  40.5011797  22.8279519   9.0704846  40.5381250
  22.2775388   7.9003870  41.3248301  17.3619187  55.2385521  52.3247957
  16.8432522  54.4698191  52.5620127  16.9623840  55.9574556  52.8144693
  10.2652347  41.8155003  29.5236635   9.5820361  41.1774445  29.7294617
  10.3892434  42.3044205  30.3371811 110.2752495  22.6158786  82.5305271
 110.2840233  22.2479105  83.4141254 110.2591896  21.8524694  81.9533062
  41.5427256  38.3276772  21.1206937  41.8351364  38.4481478  22.0241404
  40.6842947  37.9117393  21.2002349   8.8641089  27.4032855  40.2431250
   8.2310069  27.3061156  39.5318103   8.3274412  27.5122452  41.0282040
   5.1160634  42.1932364  45.1962948   5.0732261  41.6070986  45.9518337
   5.5473703  42.9806709  45.5281925 102.6032925  82.8547001  52.6961708
 101.8879604  82.3059940  53.0178213 103.3946133  82.3482227  52.8792572
  32.3615861  20.0512290  47.5480556  32.5269914  20.7282686  48.2041740
  33.1278324  19.4795179  47.5954056  10.7662416  53.7213230  39.4602537
  10.7075882  53.7304926  40.4156113  10.1344037  54.3814230  39.1751552
  97.7433205  31.9058108   2.8815061  96.9883060  31.5400171   3.3423591
  97.4761677  31.9262218   1.9625685  28.9630342  86.7316914  82.2910309
  29.3798757  87.5564480  82.0415020  28.1638575  86.6985607  81.7652416
   3.8748723  60.5028629  34.5713258   3.4901649  59.8406744  33.9970970
   3.2858801  60.5376530  35.3250551  44.8411560  45.8244133   7.6814616
  45.4878235  45.6720066   8.3705389  44.1208410  45.2307415   7.8934282
  11.1617291 103.4540939  34.9516821  11.4571857 104.2601871  34.5284271
  10.6907904 103.7511158  35.7302880  48.7077188  77.7277851  87.7806950
  49.3234730  77.3449898  88.4056377  49.1462183  78.5183048  87.4660015
  27.6451921  71.5791559  73.5465288  28.2169580  70.8597708  73.8144827
  26.7611575  71.2166643  73.6041069 111.7751884  60.3856468  18.2826102
 111.6284847  60.5308819  19.2172825 112.7066708  60.5657387  18.1555510
 104.2832184  23.3964825  20.5671453 104.5252991  23.3315492  19.6433413
 103.3528614  23.6212683  20.5557156  23.7285662  53.1662846   6.3033783
  24.0410542  53.6918736   7.0398152  24.3875217  52.4793530   6.2027180
  95.3054142  44.0457964  25.1953411  95.7955456  43.5383797  24.5483971
  94.4918251  43.5564423  25.3171563  30.6168866  39.4409132  37.0634413
  31.1768866  39.1745186  37.7925944  31.0886073  40.1645899  36.6511273
   1.6749302  89.6795368  40.9981537   2.2253263  90.1550961  40.3759480
   1.8710238  90.0791836  41.8455410   7.1788681  33.0722094  35.7670069
   7.1801162  33.9265966  35.3354359   6.5102673  32.5697112  35.3014946
  48.6867714  59.2685223  50.6059933  48.8164425  59.7986937  51.3923359
  49.1601753  59.7384930  49.9195147  34.0720987  65.1928806  45.4052019
  34.4456506  66.0710096  45.3305244  33.7953281  64.9738741  44.5154428
  71.8753099  90.4122925  76.9807959  72.7510262  90.0561142  76.8308544
  71.5030432  90.5096626  76.1043453  32.4505281  55.3346539  73.6464977
  33.0948400  54.6580696  73.4383392  32.8850722  55.8875275  74.2959023
  92.6465321  87.4328804  90.1373291  92.2900391  87.2866535  91.0135460
  92.1896648  86.7993069  89.5840740  15.1659179  27.4994326  46.3677502
  15.2846634  26.5923262  46.6493368  15.8545303  27.9837203  46.8232870
  13.7602401  35.3827548  52.9403448  13.2477152  34.5743370  52.9370117
  14.6652281  35.0921297  53.0533361 100.1923084  41.2403727  51.6381979
  99.7175884  41.6540956  52.3591089  99.8091412  41.6224241  50.8486080
  16.6634488  27.0434046  16.5424824  15.8641410  27.0501065  16.0158944
  16.3843322  27.3494625  17.4054170 103.4765339  48.2311344  36.7524242
 104.2745113  47.8993797  37.1640086 103.7527943  48.4995413  35.8761430
  21.8934846  59.6565199  22.2663760  22.7325773  59.9612427  22.6117730
  21.4122176  60.4588032  22.0639896   5.5229896  81.8708611  45.4168844
   4.6134269  81.7111683  45.6687260   5.8947945  82.3532963  46.1553001
  35.7240295  46.2316990  22.6884437  35.4258108  45.4556465  22.2140598
  35.6980085  46.9342184  22.0388150 100.7756233  76.0905170  58.1310368
 100.4959679  76.3812542  58.9990807  99.9669838  76.0480833  57.6206160
   7.4086434  45.5163431  15.9268820   6.9768625  45.4679060  15.0739753
   7.5033665  46.4539862  16.0944760  16.1102974  47.1507788  40.1919889
  16.9559991  47.5147486  40.4538012  15.9962785  46.3829517  40.7520580
  43.9847708  64.5285130  31.8358803  44.2236900  65.3843355  32.1918488
  43.3654642  64.1692638  32.4712014  14.9347854 102.0006847  62.6233864
  15.5125415 101.7489147  61.9029379  15.1127458 101.3571072  63.3092260
  22.0771480  56.3578415  54.7845602  22.5664926  55.6188869  54.4230080
  21.3127804  56.4408779  54.2144060   5.0091100  42.2870636  22.9634595
   5.1679546  41.3882637  23.2518387   5.5121285  42.8267193  23.5733557
  51.6907501  12.7409160  78.7753201  51.9134998  13.3361638  79.4910669
  51.7002964  11.8713152  79.1752386  39.4959211   0.9300492  29.9085665
  39.3717742   0.2363169  30.5562973  39.2200851   1.7291296  30.3575850
  99.9211121  35.5355859  37.0804691  99.9917507  35.8730412  36.1875153
  99.1099453  35.0274134  37.0810056   9.7802705  51.0033655  33.1282711
   9.7297436  50.1490736  32.6994705   9.5034236  51.6256762  32.4557281
  82.1479225  12.8952253  79.8633575  81.2670612  13.0622494  80.1986504
  82.7298641  13.2983029  80.5076408  32.8785396  23.9883971  69.6950197
  33.0315471  24.4926000  70.4941463  32.7434087  24.6499825  69.0165806
 111.8991661  44.8006201   5.3496242 111.9867611  45.2615499   6.1839497
 112.0424557  43.8798571   5.5684799  26.2579012  12.3013639  24.4022393
  26.6965914  13.1407642  24.2637134  25.3653860  12.4425793  24.0864754
  32.0222139  58.3907413  29.4201875  31.2103868  58.8940668  29.3582845
  32.7023149  59.0494871  29.5607090  27.2625756  89.4772720  60.5481768
  27.4182725  89.5584774  61.4891291  26.3115692  89.4035721  60.4682493
  30.6731081  44.9038601  35.3679013  31.2321973  44.4357586  35.9880090
  29.9340820  44.3139744  35.2192092  24.9687696  60.0843668  58.0011225
  24.5779395  59.5823479  57.2859573  24.2793226  60.6900024  58.2733345
  21.0902739  64.0443516  44.9365330  21.4292669  63.1676054  45.1171780
  21.0030103  64.0758038  43.9838362  45.5897284  81.0657597  40.2212572
  46.3666105  81.2920284  40.7326221  45.6153822  80.1111126  40.1563597
 110.7860851  15.8297706  35.9174824 111.3985252  16.1755192  36.5667915
 110.0036907  15.6060243  36.4215040  11.8716168  59.0575886  43.4489059
  11.1991405  58.5850191  43.9394999  12.1964097  59.7170258  44.0619993
  18.7297070  51.7934179  47.8942680  18.3978486  51.8563175  46.9986439
  18.2788670  52.4934244  48.3664608   6.5368706  16.6983318  83.0248833
   6.7367649  15.9643269  82.4439240   6.3258010  16.2890267  83.8640213
  22.8551912  33.3778501   8.6017084  23.0564523  34.1230321   9.1677719
  22.3633504  32.7774620   9.1619402  26.8595862  57.1277046  65.9012270
  27.7710152  57.2128677  65.6214476  26.6950417  56.1847591  65.8975983
  86.5437031  90.0787640  28.7083030  87.4896145  90.0365734  28.5678768
  86.2193775  89.2284203  28.4117389 107.4292088  43.7039566  19.3444490
 107.0776081  42.9145241  19.7560441 108.2254982  43.4092951  18.9024973
   2.8098604  78.9464283  36.8245125   2.6081637  79.8473644  36.5717936
   2.9287910  78.9847898  37.7735209  30.0506687  79.0160418  55.4893208
  30.2472401  78.4477711  56.2340736  29.1164041  78.8845873  55.3277683
  97.1131516  96.0748291  25.9271717  96.4576054  96.0259056  25.2314019
  96.8730068  95.3731060  26.5322781   0.4954988  53.5666800  34.6934032
   0.3764135  54.3694305  35.2009869  -0.3942507  53.2665825  34.5076013
  22.3584437  80.3634739   6.9173032  22.4576545  79.5816994   7.4606425
  22.1251345  80.0260544   6.0524642 108.3052158  38.1668067  38.6010671
 108.8321400  37.4960375  39.0354061 107.4223328  38.0399871  38.9484525
  13.9927912  71.4949608  35.9893703  14.8974681  71.6733980  36.2461853
  13.5662687  72.3517561  36.0038590  40.2293491  24.3066144  41.2545156
  39.5212889  24.9381590  41.1279011  40.8973646  24.5652628  40.6196165
   9.0972257  86.6388226   6.6562968   9.0668160  87.5272179   6.3012528
   9.2690146  86.0828876   5.8962548  14.3125689  23.9480209  44.8344469
  14.4405377  23.0412388  45.1130152  14.5006812  24.4675255  45.6160879
 109.7889805  66.9807625  45.6413841 109.9818420  66.0554934  45.4900408
 110.6466007  67.4057579  45.6508732  15.0394559  54.5621681  35.5877471
  15.0647116  54.6533537  34.6352363  14.9539280  55.4587078  35.9119964
  74.2334127  81.1145401  87.8229141  74.6486998  80.3602982  87.4047089
  74.8327446  81.8417072  87.6548004  38.6970687  40.3608656  14.2740750
  39.5393705  40.3366184  14.7281349  38.3912611  41.2611485  14.3845272
  19.0167487  77.6538038  16.3511372  19.6356010  78.3589602  16.1613810
  19.5513165  76.8597841  16.3520324  15.3508258  89.5004368  55.2809334
  15.7644081  90.0722885  55.9275913  16.0793602  89.0275192  54.8786640
  33.4907460  43.6259031  40.4913139  33.2823610  44.5419550  40.6747818
  33.3837605  43.1827259  41.3329649   2.6994675   6.7877263  83.9109802
   3.5897303   6.9470638  83.5974884   2.7670276   6.8464118  84.8639870
  10.9856200  36.1822796  18.8041949  10.2361047  35.9924340  19.3684793
  10.7043767  35.9068584  17.9316831 104.0504169  52.8762150  48.9234495
 103.7899590  52.1876049  49.5351791 103.6827850  52.6018667  48.0833244
   3.9431301  76.2196064  66.0433960   4.3969834  76.4814472  65.2423382
   3.7156171  77.0454073  66.4706182   4.0104055  13.8104844  37.0507669
   4.3765515  14.4742572  36.4663219   4.6243098  13.7722147  37.7841759
  11.9911206  68.3013296  21.1254406  12.9345918  68.2714748  20.9666920
  11.9059134  68.2317877  22.0762992  30.3578115  63.8708115  33.0252647
  30.0212431  63.8355255  33.9206457  31.3044882  63.9672565  33.1288671
   3.7844074  66.8280077  41.5463829   3.3666745  66.3496208  40.8302259
   4.6273953  66.3908529  41.6668081 112.2862848  45.3489447  62.3630476
 112.0041726  44.7492886  61.6723537 111.8200910  45.0509310  63.1441259
  19.2318666  72.7146292  29.9546504  18.7561023  73.5287666  30.1191330
  19.5080423  72.4191427  30.8222032   9.5249951  19.1000104  37.1839142
   9.5413363  18.1458104  37.2578621   8.6350346  19.3026912  36.8956065
  18.1428897  20.9274268  54.4037342  17.8522432  20.0267243  54.2605925
  17.7193999  21.4292979  53.7073040   1.6824849  59.1305923  34.0170169
   0.7445370  59.3141842  33.9642954   1.7383726  58.3060551  34.4999743
 102.8316975  42.1404266  79.6653414 102.2030544  41.9481707  80.3610992
 102.3288155  42.6347446  79.0180492 111.1690235  65.5470228  51.4848518
 111.5642548  65.5422306  52.3566246 110.3248310  65.9813833  51.6069841
  40.4125690  16.4270079  54.1393328  41.0231972  16.9106722  53.5830641
  40.1179981  17.0684659  54.7858524   4.1639429  63.4566736  33.9491415
   4.3634602  62.9259396  34.7203374   3.4170952  63.0171537  33.5426044
  35.3517127  26.6957855  53.8587427  35.6385398  26.2454295  53.0642986
  34.8159647  27.4229002  53.5417080  32.6006746  21.7235279  24.9673080
  33.3399415  21.1949754  24.6667361  32.7165127  22.5675082  24.5308328
  59.6965361   9.1356516  78.7668133  60.4202795   9.3816853  79.3429089
  59.6691942   9.8287606  78.1071997   3.9529109  48.1950617  27.3971820
   3.2157698  48.6883020  27.7571416   3.5769221  47.6990557  26.6699672
  25.4493260  49.6278191  45.2587652  26.1449409  50.1978970  44.9311018
  25.3787541  49.8459387  46.1881065  40.3380632  53.7500858  34.7596693
  40.9325123  53.2038641  35.2739692  39.7365856  53.1287861  34.3492484
 102.6911736  31.6981411  45.9092426 103.4988499  31.5938139  45.4062414
 102.5413990  32.6433539  45.9284735  40.6487322  62.5860739  39.4732499
  40.6231833  62.0978498  40.2961826  40.8511829  61.9265842  38.8096857
  35.4123640  35.2344084   9.9112469  34.9625444  35.6150365  10.6655777
  36.1774492  34.7966743  10.2844310  30.9637427  37.7580285  26.9881201
  31.2285066  36.8393946  26.9407463  30.0086474  37.7294040  27.0447350
  96.9476128  24.2057061  27.2793365  96.1773491  24.7651601  27.1796536
  96.7684460  23.6892343  28.0650783 108.2664871  65.8287477  38.4579015
 108.6649036  66.4499807  39.0674615 108.7502670  65.9509516  37.6410437
  35.6526399  33.7059832  52.6011562  36.1363173  34.2001748  53.2630157
  35.1065469  33.1022358  53.1046438 109.9192715  98.0404282  15.1693749
 109.4470692  97.5525093  15.8440518 109.7789192  98.9597225  15.3961599
  20.6162071  19.1179836  61.3386679  19.8498595  18.9186740  61.8764591
  20.8345485  18.2875156  60.9157228  24.2021585   2.3406047  44.7162056
  24.1876173   1.5375130  45.2368402  23.7245440   2.1168759  43.9174175
  99.8310471  38.7882638  56.9211149 100.0909233  38.9988565  57.8179646
  99.9379730  39.6097660  56.4415979  24.9674153  69.8979855  29.8917985
  24.5806885  69.6098709  30.7186389  24.5921803  69.3117237  29.2347383
  17.9325998  58.8838530  65.8792210  17.9954827  58.6069345  66.7933321
  18.0996847  59.8260736  65.9023571  34.2930007  50.3225040  38.7091565
  34.0921426  50.9674788  38.0310011  34.9478507  49.7503519  38.3091044
  47.0639324   5.9366822  48.8997269  47.3937082   6.7051464  49.3654966
  47.3846865   5.1921904  49.4087267  22.4567175  23.7976265  55.0840807
  22.9511142  24.6151090  55.1434803  23.0264282  23.1432533  55.4883814
  18.7000203  45.8094406  24.1247678  19.5816815  46.1721516  24.2104745
  18.6231291  45.5832958  23.1978488  26.0525227  71.7823267  39.9372983
  25.6466937  72.2808790  39.2280865  26.7775702  71.3178778  39.5191789
  23.8729763  61.1348581  23.3672190  23.7934828  62.0006847  23.7675381
  23.6596131  60.5242443  24.0728140  39.3853045  58.8414764  20.9794831
  40.0932503  59.2812157  20.5086637  39.8105550  58.1039238  21.4169860
  13.7576163  56.9491625  49.7844315  13.7412286  57.3730564  50.6424999
  13.5258222  56.0377884  49.9630499  33.3888173  73.4747314  53.2661772
  33.2390404  73.3972311  52.3239470  33.6444640  72.5942802  53.5412741
  24.7052693  73.3021212  37.7782202  24.0170741  72.7133083  37.4685097
  25.4341984  73.1567621  37.1750927  18.9947736  75.9779692  53.0272055
  19.0960515  76.9065237  52.8180218  19.3055403  75.9003782  53.9292240
 111.0551643  74.2562675  75.7638836 111.7833424  74.3072319  75.1447010
 111.1823654  75.0058317  76.3454390  13.8343167  33.6690497  39.3866777
  13.5568702  33.2105637  38.5935521  14.3131316  34.4334793  39.0663409
  17.4390316  31.7306328  58.4668589  17.2462797  32.1615720  57.6341677
  18.0040872  32.3482776  58.9310312  21.6606221  82.6207741  91.7829043
  22.4714074  82.2796376  92.1603756  21.8138489  83.5616954  91.6967629
   1.8477406  27.6905227  32.7282643   2.0739427  27.6839972  33.6583304
   0.8931121  27.6219869  32.7134609  10.7891500  10.3159785  67.2374249
  10.9202349  11.1109507  67.7542114  10.1370192   9.8160046  67.7283239
  17.0909393  45.0792360  50.7491970  16.9855309  44.3354702  50.1559591
  16.2013459  45.2836895  51.0373878  19.8019063  98.2983494  43.9864588
  19.4399250  97.7167988  44.6550417  20.6223035  98.6157799  44.3638420
  41.3533068  42.8030682  19.7592962  41.5786028  43.6879063  20.0465775
  40.6311512  42.5422668  20.3308821 109.0682793  58.2457352  60.5517864
 109.6290302  58.5985136  61.2426805 109.6776009  57.8599930  59.9223757
 110.4384136  62.7619982  35.6254125 110.4387760  63.5779238  35.1249099
 109.6095181  62.3412895  35.3970361  88.1779766  75.5416918  28.7192512
  88.2093143  75.3322077  27.7857804  87.6914215  76.3647938  28.7638044
  99.3201351  66.4208746  58.7048054  99.2277813  67.2067404  58.1661797
  98.7317085  66.5675831  59.4453907 108.4817028  61.7557240  40.3354263
 109.1649055  61.1661959  40.0161695 107.9864597  61.2303495  40.9638739
   9.9778676  61.7452240  44.8796272  10.8145833  61.5517235  45.3023529
   9.5671654  60.8891582  44.7583485  12.7590430  37.9489517  68.4225750
  13.0796075  37.5035024  67.6383305  13.1906855  38.8031459  68.4061670
  30.5133677  50.3674507  49.8057032  30.5450511  49.9458742  50.6644821
  29.8530340  51.0539484  49.9001074  31.8621683  82.7528191  45.9317017
  31.5101743  83.4799957  46.4450788  32.1706772  83.1587982  45.1216125
  11.2001491  24.1916895  42.9247284  11.3073790  24.9850249  43.4494686
  12.0725596  23.7983561  42.9042149  22.3543239  14.6553659  52.6629543
  22.4216771  15.1585019  53.4744644  21.4158750  14.6256256  52.4767685
  37.8772020  71.5381718  51.4557314  38.2594895  71.6605949  52.3246956
  37.7443194  70.5929947  51.3835192  38.0994725  60.0199747  36.5152144
  38.8191891  60.6509638  36.5056515  37.9576397  59.8324823  37.4430943
  38.9057350  36.6464925  44.1208649  38.6011219  36.6321445  43.2135439
  39.5693326  35.9578657  44.1616440  40.9172583  57.8342104  33.6030293
  41.2776947  58.0889225  32.7536535  41.6751671  57.5334597  34.1043806
  10.4288220  61.8908978  20.1832271  10.8868456  62.6489353  20.5463052
  10.4645336  61.2339020  20.8784318  27.8979206  63.8046312  24.1053677
  27.7056432  63.9756536  23.1834078  28.8129997  63.5238600  24.1111088
   7.1295059  85.2939224  45.7174158   8.0154872  85.2465534  45.3582191
   7.0135021  84.4634628  46.1790657  19.8159778  39.3760061  43.6187172
  19.7018766  40.0492239  42.9479027  20.7049012  39.0488100  43.4809160
  10.9712386  19.2013490  28.8457823  11.4246404  20.0374246  28.9536619
  10.5018914  19.0752590  29.6704316  43.7512875  91.4042950  61.1006117
  43.0977201  92.0458031  61.3790941  43.3298540  90.9281445  60.3851366
  56.9276190 104.6447849  84.5497894  57.4329281 104.8429108  85.3382301
  56.2048340 105.2721500  84.5645905  44.4155979  61.6806698  23.6760569
  44.0873480  60.9842062  24.2447567  43.7568378  61.7566729  22.9857707
  90.0209808  62.7046061  70.2349138  89.8177338  61.9061565  69.7476816
  90.5095196  63.2458353  69.6147203  95.0849247  25.8432961  58.8381863
  95.2381229  24.8999715  58.7843084  95.3576756  26.1793876  57.9844427
  25.0408101  48.6014605  57.5430870  25.6123590  48.5258770  56.7789841
  25.3415871  47.9130030  58.1362057  51.2424564  48.4625006  72.1943903
  50.9434557  48.1101847  71.3561106  52.1759415  48.6297989  72.0646048
  25.1017737  42.6304197  39.5572662  25.9006929  43.1346083  39.7113800
  25.3657222  41.9451380  38.9433002  15.0516701  50.8999729  65.8211136
  14.7954535  50.0356960  65.4992151  15.4665053  51.3223886  65.0689793
   5.6516933  65.6734514  61.1567974   5.9813082  65.2477407  61.9482231
   5.8530205  65.0577545  60.4520845  10.0720024  44.9468708  64.9683046
  10.7518518  44.3656921  64.6273279   9.5896924  44.4088316  65.5960941
   7.1979105  56.0304642  21.9491053   6.9159281  56.6904688  21.3157725
   7.8448939  55.5063868  21.4768863  96.5047550  74.6584177  60.1832676
  95.8111095  74.3970823  60.7888985  96.0708714  75.2395296  59.5585394
  20.4320598  66.7668629  46.0239172  20.5302000  65.8567524  45.7440948
  20.9449315  67.2688198  45.3904915 111.0538292  73.7949133  52.3153162
 111.5948582  74.1335154  53.0286646 110.1915646  73.6643362  52.7098799
  17.8645396   7.5568914  41.9291496  17.2847569   6.8096024  42.0762634
  17.3841703   8.1162024  41.3186979  15.7638037  72.6263475  49.1286039
  16.6880596  72.6243782  49.3775606  15.3374481  72.0768166  49.7862291
  10.4716313  53.3126783   9.4989616  10.6386936  53.3023262   8.5565102
  10.1033270  52.4492836   9.6864176  19.1851747  27.6706934  15.8880484
  18.4204555  27.3791528  16.3844752  19.9325228  27.3131990  16.3675284
  43.3273697  44.6637249  38.5462093  43.5454178  45.5623579  38.7934875
  43.8736868  44.1198921  39.1136718  43.7105083  56.2349367  27.3342204
  44.6474028  56.1169624  27.1775508  43.6540174  57.0342255  27.8578448
  30.5036426  85.2907562   2.4450347  30.8619452  85.3105736   1.5576459
  30.0340557  84.4581699   2.4951957  42.1538353  37.3959041  33.3326340
  42.9236364  37.1944618  32.8005981  42.3596001  37.0386910  34.1965151
 111.0579300  69.0023804  32.1405196 111.4077091  68.2198286  32.5665450
 111.2804222  68.8915682  31.2161565  47.9571247  77.8739262  50.3441334
  48.0624819  76.9226456  50.3580427  48.0816793  78.1153011  49.4262791
  35.0228214  85.7655621  20.1042175  35.6770062  85.8933258  20.7912040
  35.4755306  85.2525520  19.4348097  37.0936322  61.4514256  50.2253866
  37.7267098  62.0174837  49.7837687  36.8854141  61.9130039  51.0376787
  93.1439495  22.1200705  14.4343305  93.2818413  22.9557371  14.8802888
  93.9798737  21.6617823  14.5205438  16.0570431  68.4028578  43.0820656
  15.8815014  67.7135706  43.7226105  15.3258955  69.0128088  43.1801414
   8.4899098  91.6280556  30.5783510   8.3590913  92.0470905  29.7277451
   8.5561424  90.6944561  30.3777742 102.7674389  51.5121698  18.9231408
 102.9732990  50.6502867  19.2850983 102.9329014  51.4235115  17.9845285
 105.5991554  42.4609280  34.9267793 105.8722687  42.5897312  35.8351016
 105.5613136  41.5103912  34.8205471 102.6807308  60.5898762  19.3374300
 102.3035145  59.8607492  18.8451791 102.1277237  61.3393641  19.1167998
  17.7351773  63.3539295  43.5911894  18.6005139  63.4746933  43.9821339
  17.4195731  64.2428780  43.4287310  61.7653458 105.9209630  11.7502940
  61.3126843 105.0903654  11.6038918  61.6916554 106.3842161  10.9159100
  26.2263298  55.7523203  20.2375531  27.0706749  55.5998659  20.6619048
  25.6796241  56.1363077  20.9230423  17.9738855  68.0004787  50.5266190
  18.4805977  68.5502005  51.1243486  18.2123148  68.3127451  49.6537638
   6.9253969  35.2551460  22.7326250   7.5191480  35.2174354  21.9827771
   6.7715138  36.1899281  22.8695059   9.7738254  10.8985949  64.5454836
  10.1880920  10.9201741  65.4081249  10.1002228  11.6823220  64.1033649
  16.7634380  64.8287821  69.8699903  17.4193895  64.9662876  70.5534029
  16.5479207  65.7098150  69.5641136   4.4493237  38.5577202  35.7113886
   4.5653474  37.7911329  35.1500368   3.8975611  38.2474923  36.4294052
   5.9828579  95.0555134  47.5881052   5.4336959  95.8265209  47.7302313
   6.4297485  95.2291870  46.7596388  18.3223104  67.2855377  35.5728078
  18.6113155  66.7654228  36.3226008  18.3715987  66.6834021  34.8303556
  38.0244732  35.8647513  62.4871445  37.9186082  36.8160605  62.4932289
  38.9335561  35.7266235  62.2212172  18.0076385  35.1264501  36.5723252
  17.9869986  35.9189606  37.1087313  18.8145900  35.2027965  36.0631776
 110.7505703  10.9901369  40.4585743 111.3332939  11.5545082  40.9666586
 110.2842140  11.5897572  39.8761702  90.0145245  80.9579659  22.4345350
  90.9103203  81.2290764  22.6352358  89.8368740  81.3366699  21.5735745
  44.8657656  69.5604181  33.2580590  44.3228197  69.3056011  34.0040541
  45.5661774  70.0886726  33.6409473  34.9734807  65.5398607  16.8384135
  34.9115324  66.1346865  16.0910320  35.8789635  65.2298498  16.8233824
  41.5430403  47.6362896  47.9287720  40.9405756  47.9860210  47.2722960
  42.1306515  47.0649147  47.4343348  29.8427415  34.4657683  10.1034689
  29.3403816  34.1428232   9.3554246  29.1809464  34.6890426  10.7579970
   7.0578820  74.0473652  42.6392555   6.8015689  74.4202566  43.4827518
   6.3811105  73.3977413  42.4489927   1.4101650  56.7465305  35.3125429
   0.5629745  56.7856979  34.8687339   1.2096781  56.3976002  36.1810374
  11.6319585  54.0898561  18.6764920  12.1997225  54.3724442  19.3934429
  12.0084298  53.2591152  18.3860266   2.5544250  17.6813614  55.1112223
   2.0890749  18.4863269  54.8838186   1.8732648  17.0092559  55.1341629
  82.3537350   5.9787136  53.6307812  81.9880962   5.1767266  53.2574797
  82.0453358   6.6750789  53.0509615 101.1948872  17.0730352  23.0115557
 101.7462730  17.7483869  23.4066558 101.7223644  16.7229295  22.2936201
 111.1200905  62.9928923  54.0246630 111.3839626  62.2950506  54.6243477
 111.9437408  63.3918524  53.7441969  44.4309616  59.3851662  63.5419416
  43.5710430  58.9878321  63.6793995  44.6818066  59.1138172  62.6589489
  35.6735563  65.9127617  52.4934721  36.6058564  65.7987833  52.3089218
  35.2317095  65.5625391  51.7199469   9.4620377  90.4605675  19.5297074
  10.4180610  90.5071735  19.5207727   9.1768879  91.3537884  19.3371439
  47.2989941  56.7606735  39.8731232  47.4256325  57.2565269  40.6820250
  47.4712563  57.3927641  39.1752577   4.7928649  38.7437463  71.4049625
   5.0670063  39.6468377  71.5646696   4.1581142  38.5600972  72.0974922
   9.1516584  61.4323187  27.5339556   9.8654455  62.0486736  27.3701072
   9.5744866  60.6814766  27.9507113  29.6685004  51.8915033  41.0249758
  30.3676534  51.5380478  40.4749870  30.1008725  52.5508022  41.5677595
  70.1952982  71.8700933  47.7103853  70.7495213  71.6338634  46.9665718
  69.8568869  72.7381277  47.4907780  13.1323934  72.9462004  48.2753611
  13.1420672  73.8775063  48.4962940  14.0552044  72.7161217  48.1671286
  39.2629099  81.3136196   6.4419454  39.9826193  81.1649513   5.8286375
  39.0240788  80.4385376   6.7476135  30.1508451  22.2764063  34.9314213
  30.2114296  21.3309813  35.0682974  30.3890204  22.6565814  35.7769799
  80.4061890   1.4228898  44.5333576  80.2184677   1.5875326  43.6092997
  80.0380993   0.5554757  44.7016907  33.4636807  62.9430485  34.4669533
  33.8885593  63.2417059  33.6628914  33.6828399  62.0129299  34.5224118
   0.4380177  56.7157412  13.3933496   0.4753054  55.7722092  13.2365608
   0.6377894  57.1078730  12.5433147  21.4224601  82.0330620  24.4764161
  20.5645823  82.0912170  24.0558267  21.7062759  81.1327171  24.3181181
  31.8601489  67.3366737  44.9412680  31.6927648  66.4014387  45.0576782
  32.7828979  67.3855734  44.6915245  16.3297343  89.8964882  16.9112504
  16.6763687  89.0292358  16.7015910  15.4803395  89.9277592  16.4710438
  68.2545853  81.4723015  42.8626537  67.5612879  81.1067867  43.4121704
  67.8589630  82.2457314  42.4607658  12.7765226  37.7740455  21.6525245
  13.1047094  37.2899508  20.8947802  12.5293195  38.6295462  21.3014674
  31.3786554  85.8096695  42.1960688  31.4096522  86.7659664  42.1684170
  32.0855427  85.5302048  41.6143131  17.8283191  88.8101482  53.8926649
  18.7034512  88.9957047  54.2331743  17.8721440  87.8987598  53.6033821
  46.4552450  89.8004436  52.6456404  46.4881420  89.9050522  51.6947412
  45.8979654  89.0344524  52.7831888  36.9690752  73.6515284  14.9494743
  37.5507927  73.9336967  15.6553161  36.1777234  73.3516264  15.3967500
  54.0407228  91.4103127  21.8448114  54.5365286  90.6813431  21.4719701
  54.4638348  91.5823555  22.6860070  31.4091349  60.3825760  16.4764941
  32.3552752  60.4199457  16.3362956  31.2113643  59.4474363  16.5278316
  -0.0012224  23.3032203  85.2341747  -0.1882284  22.5900030  85.8445644
   0.3642351  23.9977932  85.7821178 110.7212257  66.0126638  55.0617981
 110.5570412  65.6308746  55.9240675 111.4650059  66.5996981  55.1974630
   2.4317911  78.6236382  42.6485729   3.0573541  78.7233925  41.9309711
   2.9602399  78.3194637  43.3864403  19.7108114  25.6985831  11.8389797
  19.3170571  25.4501820  12.6753318  19.0159786  25.5576587  11.1958778
  14.5929360  65.1854229  21.4707303  15.2797818  64.8840332  22.0654058
  14.2790163  66.0010529  21.8611503  31.2163997  82.0586967  34.7459316
  30.3216362  82.3515987  34.5731854  31.7634511  82.6278687  34.2046261
  15.6039059  45.2804947  42.6210022  16.3398027  44.6688080  42.5979948
  14.9516666  44.8925495  42.0376348   4.4591209  68.5843277  37.3525524
   4.2532179  69.1342306  38.1084895   3.6442903  68.1176615  37.1668029
  36.4118600  91.4455891  41.3656807  36.4880538  92.0401192  40.6193876
  37.0255375  91.7934704  42.0126820   2.6937541  53.9493704  39.7041893
   3.0900815  54.3052578  38.9088893   2.6425731  53.0068588  39.5451903
  34.5005822  86.3724518  85.5223179  34.2253995  85.4571342  85.4703808
  34.3192053  86.6261005  86.4273071  32.7839208  92.0555687  35.7780409
  33.1255674  91.8874264  34.8998380  33.4941506  91.7962742  36.3650441
  16.6706574  31.5797424  83.2548046  17.5868940  31.6946292  83.5068798
  16.2564301  32.4153876  83.4700775  47.9716063  64.2363977  49.5535469
  48.3038712  63.6257935  48.8955212  47.0207310  64.1323471  49.5183706
  26.8894696  88.7032795   7.3494840  27.7435231  88.4607887   6.9916797
  26.4002562  87.8810978   7.3797184  91.0685158   9.2394042  86.1470318
  91.8700123   9.5670569  86.5550423  90.5100441   8.9892566  86.8830776
   1.2781984  38.9885545  61.6307545   1.5179808  38.7448168  62.5248051
   0.7265550  38.2681537  61.3258839  42.0773935  57.2995043  46.6057730
  42.4259186  57.7566147  45.8403921  41.4194965  57.8964424  46.9622421
  76.6759300  61.3809395  84.3032551  76.0544205  62.1076298  84.2598915
  76.4782858  60.9459162  85.1326656  41.4335299  57.6649952  61.6263962
  41.7965460  57.4955416  60.7570648  41.3102055  56.7958689  62.0080328
  11.5345919   6.0864252  49.1178656  11.3855231   6.3477170  50.0265646
  10.6619275   6.0786963  48.7246370  25.1568794  66.3011885  42.1473503
  25.1484823  67.2579527  42.1197414  24.8601842  66.0844660  43.0312252
  24.8297811  46.9320869   4.9534187  23.9297915  46.8254375   5.2614355
  24.8487377  46.4822340   4.1087273  32.5377989  73.4531879  65.1521683
  33.0044937  74.1141987  64.6408081  33.1767130  73.1566763  65.8003187
   5.1541775  45.6970501  62.2013950   5.1313508  46.6434097  62.3432064
   4.2728019  45.3996992  62.4272108  27.5604606  83.2080650  43.3666658
  27.6797056  82.7224827  44.1828918  26.7119884  83.6397457  43.4665537
  36.5997839  46.9670677  66.8098354  36.0896802  47.7316475  66.5425539
  36.2823844  46.2593651  66.2489033  38.2214737  43.2226562  57.2220182
  39.0608811  42.7722120  57.1286106  38.2833934  43.9702892  56.6275072
  22.5174499  69.8196983  22.1619344  23.2896805  70.0238466  22.6893926
  22.8040409  69.9486351  21.2577915  31.2014484  57.6411533  52.3861408
  31.0604882  56.8552446  52.9140663  31.5962911  57.3180151  51.5762520
  27.3608756  76.8580055  37.2060847  27.6148057  76.2117434  36.5472221
  28.1531787  77.3747683  37.3525310  54.7503233  68.6176491  57.5720978
  55.4484653  68.9490747  57.0073032  55.0342512  68.8391733  58.4589720
  47.1733379  34.6406388  18.8891792  46.3308382  35.0911140  18.8300014
  47.4781084  34.5827508  17.9836440  20.6464028  54.2992306  34.9164534
  20.8635402  55.1732635  35.2407193  19.6973479  54.2334366  35.0222850
 108.7666130  49.3132401  34.7532082 108.9852715  49.1295576  35.6668162
 108.6288166  50.2600670  34.7256064  31.7604184  49.8612309  27.8238702
  31.6329956  49.3761158  28.6391377  32.6573920  50.1908255  27.8789759
  32.0738339  67.3404264   1.1262543  31.8905854  68.2787371   1.0791711
  32.3174095  67.1894884   2.0395565  14.0633547  42.3587894  61.4082623
  14.4509709  41.5367079  61.7085457  14.6474767  43.0369949  61.7474842
  14.5671332  60.6205225  22.0724607  14.6415782  61.3343620  21.4391184
  14.2629826  59.8736095  21.5568519  28.1510782  43.4635496  61.5209866
  28.8718128  42.8991652  61.2412643  28.5114694  43.9688110  62.2497272
  12.2884953  86.3480759  40.9223080  12.9777026  86.5218067  41.5634346
  11.5767086  86.9382095  41.1699724  19.8333597  83.3040047  66.3933849
  19.6125627  82.3726940  66.4058399  19.7910237  83.5724831  67.3111820
  19.7997761  49.2330933  45.1474905  20.1717567  49.5593452  45.9668970
  18.8837969  49.0499306  45.3564548  24.2124724  17.7900159  49.5529222
  24.6679783  17.2873533  50.2282572  23.9754534  17.1411395  48.8903427
  31.0522628  27.2294927  14.7182214  30.4840374  27.4493742  13.9799786
  31.8356776  26.8559670  14.3145239  91.0199738  87.1097469  75.0463152
  90.3399277  86.4379787  75.0962782  91.2210083  87.3154259  75.9592819
  23.0820465  56.3001108  42.3335934  23.1652236  55.7167053  43.0878782
  23.9244342  56.2321091  41.8841553  44.4464111  86.4291573  21.6285300
  45.2263832  86.9839001  21.6404200  43.9179373  86.7743492  20.9089518
  33.5646558  69.7672319  19.1258121  34.3697333  69.5177364  18.6721265
  32.9949617  69.0027571  19.0406132 110.8516026  65.0120401  34.3197727
 110.2288723  65.0223684  33.5929060 111.5937996  65.5290842  34.0066671
   3.1250969  80.3126335  33.8419628   2.8136212  80.8293819  34.5850587
   4.0736288  80.4411602  33.8416505  33.3746290  99.2539978  47.6191378
  32.5940800  98.9130020  48.0558300  33.6753321  99.9641514  48.1861448
  41.6702700  71.3888407  47.0763111  41.6064882  71.5638876  46.1374187
  40.8969831  71.8100929  47.4515581  34.9074149  57.4501038  35.7509804
  34.9994922  56.5851879  35.3513932  35.7609153  57.6223326  36.1486030
  26.9826770  66.1994410  28.2979751  27.1989822  67.0926666  28.5655355
  27.5948238  66.0073185  27.5876236  31.8112922  80.0223255  18.7774241
  32.6469326  80.4466629  18.9720535  31.1527777  80.6062222  19.1537964
  25.1815343  87.6993275  11.9643068  24.4129467  87.7515602  11.3961732
  25.8765674  88.1307030  11.4672434  53.9452982  70.0903416  30.1072812
  54.5585060  70.3749561  30.7849288  53.8041353  70.8694839  29.5694637
  53.4165621  65.2248907  59.3219185  52.5356865  64.9342346  59.0856647
  53.8767433  65.2985954  58.4858370  21.8524241  92.9442883  43.9854050
  21.2723994  92.8165722  43.2347441  22.7136755  93.1018066  43.5985422
  21.4560103  26.9022655  17.2275805  22.1436644  27.5194311  17.4775219
  21.4096737  26.2862921  17.9587865  50.6034088  27.1501637  54.5542526
  50.8861303  26.2526560  54.3788147  50.6296968  27.2274590  55.5079651
  21.0976458  83.0729008  41.7328501  21.1674142  82.2464085  41.2550688
  20.9289026  82.8125763  42.6383829  39.7983646  69.3494606  48.7307167
  39.9023104  70.2331305  48.3777905  40.1547480  68.7768316  48.0515099
  22.4009848  60.0209093  29.0147567  21.5015364  59.6983910  28.9581418
  22.3751760  60.8782959  28.5899639  23.4388804  69.2232990  53.2889175
  24.2175150  69.5629263  53.7300730  23.0538130  68.6135340  53.9183140
  53.3762550  73.3812618   2.0983164  53.6245012  73.0992031   1.2179482
  53.0087042  74.2563963   1.9747071  36.1906862  23.6896920  41.0498524
  36.1881995  22.7398491  41.1682701  35.2659178  23.9235473  40.9701729
  29.9248099  43.9625120  10.2889824  29.8406577  44.4863892  11.0856640
  29.0761995  44.0490150   9.8546904  58.3318472  57.3921967  60.6732130
  58.1808090  58.3265209  60.8162308  58.2920122  57.2858667  59.7227716
  36.8292117  28.1057143  21.8008232  37.2487450  27.9284000  22.6427174
  36.8449616  27.2649336  21.3435793  74.8978758 101.5834427  40.1002455
  75.1558256 101.0900497  40.8788681  73.9423609 101.5281391  40.0873137
  17.5753009  66.0126925  62.2794199  17.7258587  66.6726255  62.9562140
  18.1147456  66.2983656  61.5421104  26.6692996  73.2032537  60.5053377
  27.5260305  73.0169916  60.8894634  26.2374449  73.7685394  61.1458015
  60.4655743  74.2798662  18.3305597  60.0083065  74.3907499  19.1641343
  60.0678873  73.5012245  17.9409504  33.3224225  74.3761110  47.4179602
  33.9665055  74.7904301  47.9921818  32.8804564  73.7362862  47.9760981
  34.9757719  30.6226349  29.0780926  35.8835530  30.4114318  29.2961717
  34.7905326  30.1037335  28.2953668  25.5952406  99.1029072  24.5709157
  25.6121492  98.3497715  25.1614499  26.3455248  98.9699078  23.9915919
  28.2812309  72.0834064  18.1915331  29.1519284  71.9539881  18.5675216
  28.4478474  72.3449564  17.2859609  12.4373496  36.0596681  57.3596287
  13.0809128  35.4215693  57.0515919  11.8875957  36.2333536  56.5955353
  30.0359392  67.4077940  62.7911854  29.3864679  66.7053986  62.8237200
  29.8429155  67.9481649  63.5573292  12.3623443  54.9361038  74.2798996
  12.6619387  54.0675879  74.0112686  12.1082962  54.8289251  75.1965284
  59.7604227  48.5184050  13.7014306  60.1150370  49.2872620  14.1478968
  60.4584551  48.2434750  13.1069589  25.2689314  83.0888653  89.6229839
  25.8710361  83.4800720  90.2559566  25.7175422  82.2984695  89.3225574
  22.5716352  28.7196207  32.5391436  23.0654168  27.9291129  32.7571082
  23.1980634  29.4336057  32.6576591 104.4157505  45.6616688  70.6882143
 104.6324348  46.4774561  70.2368069 103.4867382  45.5247402  70.5027008
  20.2136064  63.3341360  18.9591229  19.9365032  63.9062023  18.2434547
  19.6158314  62.5878811  18.9144075  43.2570267  96.6673660  26.4507604
  44.1160440  96.4479828  26.8115783  43.2931137  97.6125908  26.3041759
   3.0636188  31.9656658  80.7957077   2.8750190  31.5387869  79.9599791
   2.8338462  32.8838372  80.6528950  -0.0954012  62.3870420  65.3560162
   0.1730848  63.2503033  65.0414944   0.6797160  62.0417881  65.7989931
  49.9046421   4.7067901  66.4845991  50.1107836   3.7752452  66.5618181
  50.4070616   5.1221770  67.1854973  50.1572561  46.7595339  33.5998487
  50.5756855  45.9259319  33.8149285  49.2970228  46.7103243  34.0167522
  14.6594036  53.4651041  41.3198662  14.2927146  53.8979769  40.5488968
  14.2656314  53.9237547  42.0620346  55.7047606  20.8547139  59.9801970
  55.4679060  21.7699838  59.8304987  56.0204411  20.5469584  59.1305733
   5.8088607  89.7785187  54.5545435   6.0961664  89.5564270  53.6688995
   4.8887226  90.0222969  54.4537783  50.3356695  72.5222301   1.7304462
  51.2159920  72.5805426   2.1017486  49.8352480  73.1937551   2.1939799
  35.4845238  68.6470890  53.6635542  35.4772043  69.1528797  52.8509331
  35.2809715  67.7524710  53.3906841  14.7224855  66.9238520  36.1555958
  15.1335609  67.7256727  36.4785981  15.4295361  66.2786818  36.1475468
  39.3555427  58.0427456  25.6930351  39.5632792  57.1944571  26.0848093
  38.7481928  57.8361797  24.9826217  45.3187561  84.4911766  25.7942677
  44.9776697  84.2793751  26.6631913  45.5521917  83.6436844  25.4154730
  43.4595585  38.2318091  69.4684410  42.7366257  37.9293990  68.9187622
  43.8445759  38.9588547  68.9791632  88.1017876  74.1459322  21.4439273
  88.0778217  74.9193859  22.0073342  87.2585678  74.1533470  20.9909701
  58.3992386  13.6363208  47.5538445  57.5881815  13.3065248  47.9406929
  58.1175900  14.0970480  46.7635012   2.6506785  70.7035017  65.1147270
   2.6692700  70.8318949  64.1663599   3.2556215  71.3614130  65.4574013
  12.5256574  53.7177944  65.4830837  11.6477251  53.9462757  65.7884741
  12.6911151  52.8518486  65.8558941  53.4993744  79.6513987  47.5722170
  53.0650091  79.3238401  46.7846489  53.8237047  78.8651896  48.0114365
  43.1558943  74.4373846  52.0422506  43.1855106  75.3907108  52.1230507
  44.0583420  74.1560936  52.1929026  34.3784904  52.2542095  57.4223280
  34.8245215  53.0890322  57.2796535  35.0213671  51.5925074  57.1671915
  45.5362082  67.0848989  45.1293993  45.8723259  67.9644060  44.9569893
  44.5937777  67.1545315  44.9770546  41.9964933  52.0741796  36.1369395
  41.4701509  51.3626099  36.5014410  42.6823092  51.6325235  35.6361127
  30.9691000  70.8012962  46.2803364  30.3052592  70.1573467  46.5270805
  30.5137396  71.3998652  45.6882286  36.4406610  79.8827314  17.3571920
  36.2198091  78.9665031  17.1899164  35.7222557  80.3779697  16.9636619
  21.3406634  75.7429028  17.2742307  21.9235706  76.2848806  17.8059363
  21.8789887  75.4696512  16.5314174  49.9767017  69.5436907  46.5054703
  49.0982342  69.2065716  46.6812038  49.8614502  70.4919195  46.4437723
  26.3092875  79.6120882  50.5470371  27.1146488  79.3653297  51.0017204
  25.8348107  78.7881947  50.4361153   6.7139161  58.3754444  42.5471973
   6.8001860  57.4372292  42.7161360   5.9726244  58.6489248  43.0874968
  11.7156959  38.2974291  29.7481775  12.3790097  38.9765429  29.8708630
  11.1662114  38.3553386  30.5298066  36.2926078  41.8618393   8.6683965
  36.6427398  42.7040863   8.3781183  35.3497052  42.0079184   8.7447262
  47.8071880  39.2680073  18.8001406  48.5615015  39.7985578  19.0565741
  47.8097200  39.2947602  17.8433180   3.9860180  57.8979874  44.2200232
   3.8281110  57.5951862  43.3258152   3.1122166  58.0580568  44.5765066
  44.0627813  60.3950834  48.0005836  44.8457289  59.9842262  48.3672237
  43.3520985  60.1123714  48.5761070   8.5460043  77.0445824  24.3369913
   9.4042653  77.2377968  24.7142005   7.9428101  77.0890141  25.0788903
  21.4063549  59.8809242  72.6234245  21.3079834  60.5243206  73.3252811
  21.9565248  60.3178787  71.9733334  25.5437493  92.3244476  63.2765436
  25.5728197  92.9319477  62.5373983  24.9091983  91.6577148  63.0137730
  36.9415140  70.4276752  36.6122580  36.2761855  71.0342598  36.2872601
  37.7056885  70.5918550  36.0597062  88.6023331  44.3523216  53.3340883
  89.3478584  44.6362209  52.8051043  88.0141830  43.9267921  52.7101946
  55.0275707  75.5051947  23.3888483  54.3210697  76.0335779  23.7601995
  55.0158358  75.7123470  22.4544072  27.4368382  73.0961847   9.8806101
  27.4774432  73.1181765   8.9245248  27.7362609  72.2171926  10.1128972
  51.3076401  55.4179430  57.7549028  51.6235828  55.9840918  57.0507145
  51.1576843  54.5719194  57.3330116  26.2065744  72.3771191  69.0681839
  25.9269404  71.8775654  69.8353100  26.4809418  71.7123795  68.4364605
   3.3351883  70.2889061  78.1025076   3.5336715  70.2944756  79.0388870
   3.5529077  69.4016647  77.8167963  33.4136987  59.9205112  12.2655404
  33.0965090  60.7308722  12.6642191  33.0160570  59.2245483  12.7887464
  20.7246852  52.4998236  58.6220503  20.1932645  52.9205227  59.2979431
  20.9626102  53.2110405  58.0272388  34.8845243  30.0755286  46.8822145
  34.1621685  30.6216979  46.5721655  35.1367116  30.4646754  47.7195930
   7.3727733  88.0079269  23.7401962   7.1387559  87.7564526  22.8467607
   8.3199686  88.1427860  23.7107468  47.9105711  63.7562227  36.1316419
  48.2222557  63.3715200  36.9508410  48.7072992  64.0300369  35.6772327
  22.9640603  63.4715748  68.0780888  22.0959496  63.7856483  68.3310223
  22.9995275  62.5738001  68.4082031  11.1212015  84.3043518  52.0278502
  10.3051472  84.7832489  51.8831301  11.4062166  84.0463924  51.1512375
  36.9864321  62.0856142  19.7760296  37.5607681  62.0357037  20.5401492
  36.2368894  62.6015425  20.0730753  38.8952565  45.8452225  22.4892163
  38.3623600  45.8891630  23.2831454  38.4532285  46.4277124  21.8715191
  41.3035488  76.3207674  37.7290392  40.8404827  76.6216469  38.5108805
  41.1267471  76.9940233  37.0720005  42.3559189  72.0600271  44.5674229
  42.9988194  72.6249075  44.1386795  41.5935564  72.0828485  43.9890480
  10.5457890  52.2777462  71.5990496  11.3045406  52.7747440  71.2932396
   9.7909516  52.7775764  71.2882137  20.3981280  65.2467489  68.9603043
  20.0931287  64.3781757  68.6980295  19.7315288  65.5602026  69.5715523
  34.0627360  73.9059353  24.7480488  33.7309289  74.6094799  25.3058648
  33.3158088  73.6607981  24.2019367  46.7868280  74.6552038  59.9846840
  45.9327364  74.7182894  59.5571566  46.6369343  74.0808868  60.7356358
 109.1278172  93.0252934  52.1326637 109.6361542  93.3673477  51.3972569
 109.7840500  92.6752090  52.7351856  40.5477571  44.3530273  44.8320007
  40.6199360  43.4297705  45.0741148  41.0190964  44.4204378  44.0016222
   3.2630271  71.2001467  38.2306170   2.5589523  71.8151712  38.0250597
   2.8404605  70.5180931  38.7526083  43.8534117  71.6541576  59.9728346
  44.1006994  70.8494139  59.5173550  43.3435440  72.1464920  59.3295050
  86.4081383  98.0901718  87.6017857  87.2403336  97.7704048  87.9502583
  85.7478809  97.5233078  88.0004883  50.5262899  65.9430838  52.2430563
  51.0329056  66.5520096  51.7056656  51.1351919  65.6631613  52.9265165
  11.5323460  40.9268045  47.9976368  11.6285479  41.8421459  48.2605648
  12.1818078  40.8071136  47.3047400  51.5675688  69.2947006  43.9591694
  52.4234867  68.9831114  44.2533636  51.0408926  69.3373203  44.7573090
  36.7349958  53.6144829  20.8186507  36.0253382  54.2274141  20.6264591
  36.9878626  53.2652473  19.9640608  60.7230330  97.9970646  61.0479879
  61.2910986  98.4475994  60.4230499  60.2685785  98.7016869  61.5097332
  29.5731282  71.8719673  53.5097456  29.7352171  71.6513300  52.5925350
  29.3884802  72.8111506  53.5011482   1.4801294  67.9590607  47.7867174
   1.2926180  67.3087645  48.4636116   0.8539659  67.7658892  47.0889854
  25.6747007  64.7821903  52.6700401  24.9603605  64.8639631  52.0381641
  25.5462956  63.9204788  53.0665159  19.3770218  94.3676853  22.4350715
  19.1061318  94.7588062  21.6044855  20.2560091  94.7145367  22.5877500
  58.0336285  88.3643913  49.6795368  57.8752375  87.4318504  49.5328426
  57.2810650  88.6572170  50.1934719  24.1812348  64.7019625  64.6801281
  23.2533073  64.6668434  64.9123955  24.1935134  65.0743628  63.7984276
  27.3789549  54.1072702  28.7701368  27.3812413  53.2088327  29.1003537
  27.3237133  54.6511078  29.5558977  47.1216631  54.5962429  27.2551870
  47.9257822  54.0933228  27.1259832  46.4412546  54.0730619  26.8314362
  19.0687001  57.7879381  55.5876589  18.9441395  57.4801016  54.6899128
  19.1295183  58.7398911  55.5081701   9.9756926  33.7655973  20.2682328
  10.3850973  33.6150193  21.1202574   9.5486569  34.6178579  20.3549719
  19.1998804  38.3817267  48.6962509  19.4034457  37.6246214  49.2454195
  19.4830942  38.1242967  47.8188944  27.7946520  57.3892498  45.5902338
  26.9967365  56.9120741  45.8179855  27.8648877  58.0711317  46.2583208
 107.1456432  40.1214695  22.3906469 107.8688145  39.5227218  22.2042084
 107.5456333  40.9910154  22.3793030   9.0772927  59.1063690  74.5252895
   9.6282297  58.4489965  74.1003656   8.2866335  59.1405296  73.9868450
  13.7592769  26.2977624  51.8711996  13.0529594  25.9331393  51.3379097
  13.6660063  25.8655429  52.7201509  35.8849144  66.6877127  35.2482820
  36.0741448  67.4068451  34.6455598  36.5765500  66.7397976  35.9079480
  26.4071536  13.8145769  31.9262862  25.9348297  14.5681477  31.5723491
  25.8203864  13.4550750  32.5916409  27.1534038  57.9184914  61.7178965
  26.9546843  58.4329224  60.9355259  26.5641761  57.1659422  61.6657686
 110.8928394  77.3923588  72.6343250 111.6388702  76.7945004  72.6816607
 111.2486458  78.1885719  72.2397661  27.0774508  51.1898232  56.1377573
  27.6917672  50.7563257  56.7301512  27.1258998  50.6812048  55.3283167
 100.7155800  55.6182528  50.0047398 100.2892685  56.0118961  50.7660151
 100.7117844  56.3104010  49.3435669  53.3303022  34.4879651  18.6404765
  53.3958340  35.4332709  18.5050857  53.4106922  34.1141820  17.7629483
  35.2094936  62.8732061  46.2470770  34.7398019  63.0948353  47.0511293
  34.7084928  63.2995510  45.5517626  39.5156026  66.3650942  59.1258049
  39.4630933  66.9505167  59.8812914  38.7987161  65.7438850  59.2538881
  22.3372960  58.1786919   9.4006771  21.6543841  58.4335899   8.7802792
  22.4112082  58.9249992   9.9954826 108.8341904  84.7695923  42.7424002
 108.0539894  84.8846626  42.1999216 108.6127472  85.1909351  43.5728645
  22.8599334  87.0742893  36.0746694  22.7682543  86.2378311  35.6184196
  21.9620204  87.3349762  36.2796664  10.5455923  37.4707127  32.1633124
   9.7173029  37.9462552  32.2267747  10.8797669  37.4509907  33.0600667
  19.6555579  46.5122843  35.5237317  20.1487064  45.7520866  35.8321738
  19.1722012  46.8125963  36.2934136  66.5437746  81.4041042  29.4047070
  66.6375065  82.2525215  28.9715433  67.2981024  80.8971691  29.1042948
  34.1092539  70.1440907  46.0669994  33.9682579  69.9163437  46.9859600
  34.0018845  69.3176126  45.5962181   4.0563184  60.1206589  22.5316954
   4.3490654  60.9305573  22.9495406   4.7706744  59.8847103  21.9398713
  48.9809942  72.0379496  67.2628260  49.4153452  72.1533680  66.4176941
  48.9385557  71.0892344  67.3827171  17.1048141  47.3174572  43.8519192
  17.4143577  47.6458120  43.0077648  16.6881144  46.4808559  43.6452866
  10.8202815  59.8000956  17.8303277  10.6733096  60.3330135  17.0489013
  10.3205860  60.2402925  18.5179055  44.9402523  67.3133945  39.8175049
  44.1485310  66.8914413  39.4837999  45.3950405  66.6224575  40.2991772
  22.9602027  43.7162161  46.8087626  22.7346754  43.0034542  46.2109804
  23.9041042  43.6281681  46.9411516  35.0852752  61.9036531  64.5337248
  34.4826818  61.8955612  63.7900543  35.4871917  62.7719688  64.5068884
  37.1085453  51.9859266  41.4366102  37.5325894  52.5725222  40.8102560
  37.8032470  51.7489052  42.0509720  20.1403737  66.1250448  73.5625219
  21.0438180  66.4296913  73.4776020  20.1734710  65.4682207  74.2580223
  43.9236832  61.5383339  53.7378597  44.4754076  62.1172476  54.2638731
  43.5960245  62.0958328  53.0321217  33.1615782  75.4754066  68.7138987
  32.2185612  75.6393957  68.7064219  33.5550952  76.3329315  68.5525703
  14.7761011  61.8819666  35.2529240  15.6679285  62.2015047  35.3899384
  14.3992090  62.4893665  34.6163297  54.8903561  53.0681276   8.5050839
  54.1929293  52.5357485   8.1224543  54.6505833  53.9689922   8.2878685
  18.8935351  65.0852156  33.9229393  18.0401278  65.1414776  33.4930968
  19.3666327  64.4153166  33.4293318  41.0748196  78.8426352  64.8039246
  41.8155336  78.2384539  64.8543501  40.3146601  78.3095884  65.0368309
 104.7818279  26.5390682  87.9790115 104.6888542  26.0545516  87.1587467
 104.9022770  27.4489808  87.7073860  56.7013843   1.3417310  61.6783905
  56.1366160   1.0322351  60.9702396  57.4969907   0.8157129  61.5975189
  28.4172225  51.4198303  19.2539167  27.8680491  52.1077442  18.8778627
  28.8320112  51.8319750  20.0117564  41.0714960  59.2276096  30.8137798
  40.8566093  60.0672960  30.4076028  41.8503284  58.9272833  30.3453183
  38.3191466  65.9365606  51.0039520  37.8663754  65.2797127  50.4750013
  38.3556151  65.5543613  51.8807793   7.6050013  70.0284147  14.1739011
   6.7141020  69.8329782  14.4643068   7.5984466  69.8376083  13.2359350
  40.1470947  72.2301006   8.6203939  39.1957474  72.1695805   8.7070101
  40.4411793  72.5918913   9.4563699  35.6410289  58.3065367  39.9252558
  35.1917529  58.3679008  39.0822744  35.0350380  57.8208685  40.4848385
  30.4213238  67.1181107  28.8880634  31.0630512  66.9028854  29.5648909
  30.4044247  66.3476276  28.3203483  53.0951881  74.5467043  16.0616338
  52.6068687  75.3699589  16.0670280  53.9257669  74.7580957  16.4878821
  93.0430031   3.1959134  30.3463078  93.2277393   2.8719559  31.2278700
  93.3849907   2.5166982  29.7649789  39.2757416  43.6993742  49.7532701
  39.7308731  43.4456158  50.5561972  39.0328956  44.6144056  49.8945808
  52.5358009  93.6185551  33.7790442  52.6526785  92.8423214  34.3267989
  51.5880346  93.7487984  33.7473106  39.9357700  86.8346024  35.6842232
  40.8380413  87.1072769  35.5175281  39.4007182  87.5259304  35.2943397
  38.2040215  47.5488949  35.5185151  38.5408235  47.4727583  34.6257687
  37.4496627  46.9601059  35.5409408  42.2686386  21.2697768  75.8791065
  43.0161476  21.6039348  76.3748837  42.2175598  21.8381453  75.1106119
  54.8337555  79.8312664  56.2728977  55.7429171  80.0285912  56.4981031
  54.7926855  78.8750553  56.2585354  34.9335480  67.7741528  59.9747801
  34.7315741  68.6657047  59.6909094  34.0941405  67.4205351  60.2690268
  57.5890160  70.2845716  53.3749676  57.4230289  69.7220516  52.6184940
  57.6505089  69.6797371  54.1143084  50.4462767 100.2147579  68.9565659
  49.9136209 100.7849598  68.4021568  49.9227142  99.4195271  69.0552235
  35.8335423  58.5375547  55.5617428  35.2478266  57.8066778  55.3642845
  36.1999059  58.3256817  56.4203024  66.8878937  31.5690947   2.8354990
  67.8133869  31.6091728   2.5944924  66.7322683  30.6460834   3.0356500
  37.4626303  76.2620497  31.9725966  37.4126291  76.9895601  32.5926471
  38.3063149  75.8487177  32.1558547  62.1445894  64.3697500  82.4686241
  62.6099539  65.2042961  82.4120426  62.7023935  63.8213968  83.0203438
  50.2825165  74.3223429  44.1106319  50.4610395  73.4721756  43.7086630
  50.4011631  74.1733932  45.0486994  25.2892590  54.5305300  38.7446928
  26.2228680  54.5694447  38.9522839  24.8511672  54.6929884  39.5801067
  50.4991627  69.3524265  27.7673054  50.2698469  68.6573076  27.1504974
  51.1896849  69.8465443  27.3254251  21.6098475  78.1044960  77.3937750
  21.1048055  77.3171091  77.1908188  21.3614774  78.7303400  76.7134380
  66.1044168  85.1903248   3.3724746  66.3095999  86.1240673   3.4198433
  66.6725826  84.8551273   2.6788867 106.1279583  44.8386765  43.7823391
 106.1556244  44.0034580  43.3155632 105.6437588  44.6481323  44.5857525
 108.5273838  84.8114491  32.3828912 108.4941578  85.7646942  32.4631572
 109.4006729  84.6306610  32.0351601  18.4871888  94.3395805  55.7491779
  19.1248918  94.4030476  56.4601898  19.0180027  94.2258358  54.9608040
  55.5034542  95.9804726  47.6401472  54.6853876  96.4129543  47.8850222
  55.6264400  96.2052155  46.7178679  19.2448866  73.4280300  16.5265608
  19.6712375  74.0695238  15.9582782  18.4818923  73.8879108  16.8766797
  53.9288235  80.6416225  41.9063377  53.4723949  79.8271990  42.1175671
  53.9243412  80.6775475  40.9498215  63.1461859  77.3523474  53.8265276
  63.5846472  77.6356602  53.0242062  63.5976744  77.8248930  54.5258760
  43.5037422 103.7653160  56.3691139  44.1677809 104.1262817  55.7817554
  43.2660913 104.4960594  56.9398642  23.3880115  26.8940401  36.0624647
  24.3242764  26.9981933  35.8927798  23.0067062  26.7188978  35.2021384
  91.3173580   6.6607189   1.2927440  90.6655502   7.0217294   0.6918724
  92.1111584   6.5790254   0.7641187  23.9421892  62.3104668   7.0345521
  23.1107616  61.8380451   7.0767289  23.6972928  63.2059193   6.8012679
  47.1928978  92.7921104  91.1284447  47.4012280  91.9253922  90.7796955
  46.8541908  92.6215649  92.0073223  49.2068243  81.4739513  29.5779514
  48.6501312  82.2035027  29.8501301  48.6935186  80.6920815  29.7815013
  28.0182552 105.8155632  87.2213078  28.2172942 104.8792839  87.2236633
  28.2175946 106.1005497  86.3295269  26.1290359  68.3777809  69.4730234
  26.1189055  68.3979273  68.5160923  25.3615189  67.8571081  69.7097635
  53.6414766  85.8208084  38.3298469  53.9617300  84.9188614  38.3170033
  52.7432060  85.7514381  38.6531663  50.8168364  86.6604042  66.8978977
  50.8088589  85.7113075  66.7738819  50.3874636  86.7951775  67.7427101
  19.6007907  62.6110983  68.8348007  19.5728993  62.2277880  69.7114563
  20.0706005  61.9660521  68.3061886  37.9135895 100.7973766  69.1138554
  37.8547573  99.8887157  69.4089890  37.3157334 100.8461094  68.3679152
  23.0124426  48.2368040  68.8446093  22.9942966  48.0657434  67.9029894
  22.2526860  47.7666998  69.1881275  26.9021583  51.8758249  44.3717623
  27.7194524  52.1974230  43.9911890  26.4338183  52.6672983  44.6372128
  51.3419390  82.4792671  64.1816378  50.5199862  82.6901531  63.7387466
  51.9437790  83.1733704  63.9128542  42.4993038  71.8320799  50.2867699
  41.8337345  72.4998426  50.1214266  43.1919813  72.2956896  50.7573986
  11.1769140  68.4731293  24.1256118  10.4664660  69.1119385  24.0671134
  10.7439697  67.6551056  24.3697929  30.2247167  76.9693756  65.7143211
  31.0265613  77.1181965  65.2131891  30.2129459  77.6738977  66.3621950
  72.8150463  23.1064796  68.9271545  72.4292231  22.2319698  68.9782095
  72.6768255  23.4804273  69.7973776  15.8809173  50.4666758  48.4366941
  16.7444468  50.6859970  48.7866163  16.0561049  49.8155355  47.7573156
  37.7158308  81.2019062  88.2559681  37.8567767  82.1160984  88.0097294
  37.5506806  81.2304306  89.1983795  43.2760191  67.1923304  47.8527546
  43.2174683  68.1457806  47.9138184  43.0626392  66.9972181  46.9402647
  37.8824401  69.3120623  58.0861139  37.2876310  69.9779177  58.4311771
  37.5344038  68.4846258  58.4184504  21.6253901  69.4506121  37.7691913
  21.8727136  70.0795460  37.0913219  22.4567199  69.1768646  38.1567287
  53.2854748  62.2465944  57.9910088  53.9762354  62.9082012  58.0278730
  53.6459875  61.4972591  58.4650946  41.3113213  92.8151894  67.1977425
  41.7815638  93.5401917  67.6094198  41.9267654  92.0826912  67.2278452
  22.3950934  72.1288919  68.5105610  22.8166199  71.4959288  67.9292679
  23.0663109  72.7926922  68.6688900  54.8286343  60.5236292  59.4481230
  55.7574034  60.5342913  59.2167997  54.8186302  60.3624868  60.3916073
  28.8721204  86.1269855  18.3554554  29.7879219  85.9273815  18.5496128
  28.4233212  86.0338116  19.1957712  27.6471734  93.7134171  65.9650946
  27.0952225  93.1792355  66.5362644  27.1994615  94.5583153  65.9212494
  43.3825302  63.2015181  60.3913736  43.1435680  64.0751839  60.0818014
  42.5621510  62.8293991  60.7150126  79.4300127  92.8589821  28.9935660
  79.3347406  92.7504444  29.9398088  78.5325527  92.8570461  28.6607027
  35.8541179  79.8850965  66.6734266  36.0901999  79.9534607  67.5985336
  34.9859476  80.2843475  66.6176558  13.3319616  49.9802923  33.4501648
  12.9130471  49.4843388  34.1535640  12.6732779  50.6219482  33.1843686
  79.2226267  25.6634903  50.3860903  79.5366526  26.5607071  50.2737522
  78.7136841  25.4870224  49.5948458  51.9768810  67.2430277  49.9114752
  51.9927454  68.1409740  49.5803022  51.4482403  66.7621803  49.2746401
  14.7950780  66.0626268  31.4815426  15.1046574  65.4560280  32.1541691
  14.0067089  65.6487226  31.1302733  50.9284210 103.8052082  24.9241114
  51.8625259 103.8494682  24.7198606  50.7907915 104.5002174  25.5677366
  37.9312515  39.0697908  51.3093233  37.0771623  38.8620234  50.9303856
  37.7400446  39.7112298  51.9935989  74.3357420  77.1296215  38.3472991
  74.3097305  76.6092110  39.1502476  74.0150213  77.9922390  38.6104703
  65.6662798  81.4291954  20.9167862  65.2668238  82.0963478  20.3586054
  64.9475574  80.8343601  21.1308956  57.7149200  85.0445557  39.6212077
  57.0236635  84.5446968  39.1870022  57.7364159  85.8795547  39.1537285
  23.6945081 101.2920952  40.1085186  23.2411790 100.9511662  39.3374872
  24.4294381 100.6928062  40.2387524 105.5078983   3.3843517  37.3206830
 104.6796036   2.9190567  37.4375224 105.5443287   3.9967361  38.0554557
  39.4925261  58.7171078  54.6936607  40.1676512  58.4418535  55.3138781
  39.1257071  57.8983784  54.3599558   0.2242071  58.5226488  49.0873861
  -0.5356520  59.1028690  49.0406370   0.8486921  58.8952017  48.4649324
  22.1238065  61.1933708  52.1656322  21.3492441  60.6309795  52.1651316
  22.6858354  60.8263540  52.8480244  57.1729660  97.4819660  44.1264391
  56.2868071  97.8438377  44.1274261  57.3888016  97.3744392  45.0527716
  45.7400894  75.9003305  51.2130165  45.4048538  76.6798496  51.6559601
  45.9022093  75.2747250  51.9191074  46.2919760  72.7855158  61.9588947
  46.9000769  72.1252108  61.6265678  45.4382515  72.5176239  61.6188622
  36.2217593  93.8121796  22.6579404  35.3120971  93.7416649  22.3685026
  36.5012550  92.9065990  22.7922416  58.2912016 104.6435070  22.6356983
  58.6659765 104.7422981  23.5109210  59.0501642 104.5841980  22.0554519
  48.4306765  36.2416649   5.0827807  48.5656786  37.0724130   5.5387008
  49.3100166  35.9632039   4.8269433  48.9058256  78.5407734  63.7217760
  49.7778511  78.8194704  63.4422493  48.4738445  78.2605076  62.9148865
  28.7942457  79.3843603  35.4047346  29.2191482  78.7346601  35.9647131
  28.5334039  80.0834274  36.0043168  46.3871717  55.0618792  34.7654080
  46.8117380  54.6965551  33.9891911  45.7246542  54.4133711  35.0036049
 105.1393890  48.5477686  69.7910690 104.5668793  48.8580036  70.4926491
 105.7382298  49.2770433  69.6304798  48.4810495  73.9378357  37.7455616
  48.8716125  73.7808418  36.8858838  48.3149624  73.0629396  38.0965614
  47.6464748  54.8990154  53.9733744  48.0324745  55.2204561  54.7881794
  48.0707121  55.4147196  53.2875872  49.0332747  95.2285480  78.8130617
  48.1638956  94.8376846  78.7256575  49.3911791  94.8404789  79.6115208
  18.0825925  49.9474764  58.4763956  17.6299405  49.1098690  58.3776808
  18.2087004  50.0417614  59.4205570  66.4434528  84.8364830  54.3516970
  66.1026049  85.1251602  55.1982880  67.2003603  85.4006004  54.1932774
  24.6585488  80.5001926  20.7257199  24.1657758  80.6237602  19.9144638
  24.0702176  79.9975157  21.2891150  20.3715014  47.2114229  17.3798299
  21.1560750  47.5790262  16.9729578  20.2210402  46.3903713  16.9113564
  79.3512487   3.6752704  46.2897491  78.4654665   3.7704659  45.9396744
  79.6973896   2.8949958  45.8566332  33.7192011  62.9108953   6.5241897
  32.7766752  62.8674746   6.6854119  34.0667868  62.1110868   6.9188094
  24.7053719  52.6601648  47.5067902  24.9095321  51.7362309  47.6513433
  23.7496281  52.6903296  47.4634695  38.6931992 100.8184528  47.3079777
  38.2787609 101.0992241  46.4921093  38.4415245  99.8995876  47.4006081
  33.6495423  75.2927589  41.4338446  32.9084945  74.8011589  41.7879725
  33.2830024  76.1469173  41.2051773  84.6550560   2.1585551  55.7633114
  84.7144794   1.3041250  55.3359365  83.9647293   2.0515437  56.4177084
  44.5440388  84.2713547  60.5644941  44.8017979  85.1693535  60.3562021
  43.7010765  84.3611240  61.0090113  30.8346939  76.0626793  32.8363442
  31.4454985  75.5059481  32.3534393  31.3816524  76.7587376  33.2004523
  44.3219042  53.5937929  35.6898236  44.1737795  52.7409887  35.2811503
  44.3282461  53.4112501  36.6294360  55.0519609  99.5849609  48.7359333
  55.0494814 100.4646397  48.3585787  55.2940178  99.7181606  49.6523905
  20.1520634  60.1839733  10.1239920  20.2543116  59.6877098  10.9360886
  20.6859803  60.9678125  10.2534580  61.2095928  83.9644909  40.8979225
  60.4545641  84.1104221  41.4678907  61.3168478  84.7904873  40.4262733
  50.6883192  79.4625950  53.3758307  51.2126064  78.6889362  53.1689358
  51.1603355  79.8872423  54.0921497  43.4752035  77.8386927  18.0587459
  44.2840242  78.2107830  18.4102988  42.9723644  77.5844908  18.8325465
  25.5416036  44.6126223  49.1226435  24.6117353  44.7382355  49.3118477
  25.8259535  43.9477539  49.7497988  24.5501018  80.3602886  29.7230291
  23.9610505  81.0042381  30.1162076  24.3222332  79.5347643  30.1505899
  35.7684565 104.8527718  51.2705326  36.6295052 104.9479294  50.8633804
  35.3396034 105.6958389  51.1237192  48.2848597  63.5984087  44.6041489
  47.8439379  63.0041838  43.9969254  47.5791693  63.9598274  45.1404428
  36.0148525  78.2862186  43.7224054  35.2952552  78.6653805  44.2270279
  35.8740973  77.3410320  43.7775564  21.8092918  64.5806074  12.4721050
  21.0714984  64.6116781  13.0811441  22.5769091  64.7550964  13.0166686
  43.8022804  24.4029760  90.4342937  44.1948128  24.7115445  89.6176338
  44.3316460  23.6453080  90.6831837  46.7403269  23.4511352   8.5198081
  46.9211817  23.8498282   9.3710238  46.2597609  22.6498890   8.7278676
  56.8629074  87.5756168  21.5960670  57.2036171  88.0496311  22.3546553
  56.5350628  88.2604504  21.0131717  70.1110649  71.2654781  59.4892883
  70.2463722  72.2049761  59.6128368  70.9592104  70.9387922  59.1890192
  27.0896506 104.1264057  58.9768076  26.3763714 104.7618103  58.9157915
  26.8047619 103.5106277  59.6519995  69.1948462 100.9957695  62.8835917
  69.1742420 100.0914574  63.1966639  69.7066975 101.4655781  63.5420132
  26.6570973  73.8360453  55.4512167  26.9684958  74.6428490  55.0409365
  26.0911131  73.4349394  54.7916651  53.3159351  77.5001431  24.6185565
  52.8357887  78.3281803  24.6113920  52.9436255  77.0137453  25.3541064
  55.5681324  83.0112839  50.4413128  56.0873556  82.3204231  50.8528328
  56.1667681  83.7555218  50.3783321  39.2228675  51.1755610  42.6323318
  40.0602770  51.4599037  42.9985619  38.6956859  50.9389830  43.3954477
  19.8312032  67.3186541  38.9419961  19.1666579  66.7514277  38.5510159
  19.8761034  68.0741644  38.3559775  38.9979911  60.9346914   8.2704133
  39.7960353  60.4975224   7.9733592  38.5180950  60.2583075   8.7483621
  20.6032300  56.5046120  32.1811938  20.1383996  55.6997490  32.4100113
  20.1400924  57.1927404  32.6589084  51.1509514  55.1693773  60.3613138
  51.0863590  55.3743029  59.4285393  51.0217047  56.0098886  60.8007002
  29.8595190  62.5718737  43.4067726  29.3268108  63.3458471  43.5895777
  30.3037167  62.7757788  42.5837660 105.0115013   4.7099966  39.6615338
 105.0637531   5.4688287  40.2426338 104.1132259   4.7227454  39.3311262
  31.3916659  71.1077929  63.6408758  30.7521868  70.5085516  64.0258503
  31.7756176  71.5623426  64.3906736  17.0052576  99.2862511  86.3241005
  17.7919149  99.0731144  86.8260670  17.1312129 100.1966190  86.0565281
  35.0451207 100.0187016  52.2116661  35.7851243  99.7807980  52.7702665
  34.4578600  99.2642307  52.2579050  34.2561865  85.7394791  49.6921873
  35.0019383  85.3790855  49.2123938  34.5643902  85.8106422  50.5956173
  48.8759899  97.6801395  61.9907522  48.5231352  97.4166012  62.8406239
  49.6961260  98.1271076  62.2001028  69.7047710  67.6177740  86.3280964
  68.7920284  67.8589725  86.4860821  69.9476671  68.1029654  85.5395412
  70.9322643  64.9715519  24.5959115  71.8638563  64.9372530  24.3786788
  70.7379627  65.9058523  24.6704984  34.8989582  85.8352566  58.3027267
  34.4938350  84.9915791  58.1019020  35.8331418  85.6952286  58.1480551
   9.6708268  62.7788687  64.8668814  10.2276421  63.5343122  64.6784735
   9.4896847  62.8427744  65.8046103  38.6162186 105.0744534  68.8641357
  38.1952214 104.6110153  69.5881605  39.1445422 104.4065094  68.4271479
 105.3845310  63.9592075  72.2553682 106.3190746  63.8968992  72.0579433
 104.9828625  64.2299652  71.4297915  20.3756785  69.2294121  19.2089951
  20.2921677  68.8452291  18.3362639  20.2395511  70.1669264  19.0720117
   5.4736745  29.1035724  89.3876362   5.8174777  28.2618403  89.6868324
   5.1460284  28.9285445  88.5054588  60.2229834  92.1300316  18.1194890
  60.8512831  91.9850063  17.4120724  59.4987488  91.5361023  17.9220974
  77.1917248  74.8892784  43.0924654  77.2281408  75.7393360  43.5309982
  77.1402216  74.2535686  43.8062239  16.4940500  79.2302465  46.5726328
  16.8845785  78.3758307  46.3890839  17.0115423  79.8464584  46.0542536
  66.4295387 104.3609333  50.9585714  66.6529560 103.7375069  50.2674437
  67.2716475 104.7186852  51.2398052  35.8673668  82.9957867  44.9775076
  35.1322985  82.9356194  44.3673515  35.5360699  82.6134300  45.7900763
  35.6304502  69.7469473  50.2319145  36.4775920  69.4112062  50.5249357
  35.6888199  69.7432232  49.2765045  18.6193037 104.1993904  81.4908314
  19.3439126 104.5172310  80.9521675  17.8388953 104.5887470  81.0963726
  32.3582911  82.4988365  40.7770586  32.8453183  83.3111572  40.6386185
  31.6166115  82.7547264  41.3253832  33.5012412  92.5927162  13.6341286
  32.9493713  93.3692741  13.7270367  33.7672925  92.3795509  14.5285606
  50.1995850  92.9433632  25.2827120  50.6281519  93.4907532  25.9406853
  50.2824354  93.4389591  24.4680071  87.3911381  85.4511356  70.9404182
  88.0966949  85.8640194  71.4383650  86.7300987  85.2330589  71.5974665
  11.2703812  83.3761215  85.0507069  11.8585026  82.7803326  84.5866203
  11.2581217  83.0483532  85.9499550  15.6227672  48.0165195  51.3201618
  15.9370828  48.9066172  51.4787769  14.8618317  48.1291723  50.7504940
  21.4894128  60.3682041  39.8707700  22.2830224  60.8262920  40.1474857
  21.4631367  60.4867935  38.9213085  53.0741167  37.9644251  50.5303144
  53.4958076  37.6281095  49.7395563  53.7985849  38.2668781  51.0779476
  38.7360358  52.4311018  38.4830880  38.5827231  51.6316271  37.9795361
  39.6093655  52.3147345  38.8572335  47.1643162  77.9310560  45.3342104
  47.7648544  77.2952223  44.9452305  46.6465378  78.2537889  44.5966578
  28.6671281  86.3587475   8.5752219  28.9939475  85.7104874   7.9513788
  29.4207907  86.9215107   8.7527543  59.8450851  93.3619404  52.2515631
  60.0466061  93.0023575  53.1154585  60.6973171  93.4534073  51.8254519
  44.4265556  56.5390635  38.8311172  43.6089420  56.1074114  38.5833097
  44.9930191  55.8268404  39.1279197  21.8112516  89.4895267  40.9636164
  21.1081004  88.9620972  40.5846262  21.5923023  89.5478344  41.8936157
  19.5341980  54.1305065  41.6274595  18.7412465  53.6010742  41.7120790
  19.2589688  55.0145578  41.8702173  31.5599751  33.7868404  29.2719483
  31.5546036  33.6734796  30.2223969  30.6820822  34.1066146  29.0639114
  60.1440048  81.6612339  31.1889195  60.1802063  82.0947075  32.0415735
  59.4013405  82.0695400  30.7439899  61.3150978  90.1308155  47.8365231
  60.8951235  90.5323410  47.0758438  62.0271111  90.7298756  48.0610180
  89.7397804  78.4319401  83.3107376  88.7880325  78.4174347  83.4117317
  90.0424385  77.6552916  83.7813187  26.3541365  59.9812031  71.1774826
  26.7056656  59.3828487  71.8367481  25.6133032  59.5095968  70.7967138
  37.6483369  64.3325377  61.8257093  38.3769369  64.1268444  62.4114275
  37.3318028  65.1841259  62.1271038  54.4852018  89.2672920  16.6621387
  54.1780949  89.3635941  15.7606721  54.9513817  88.4313011  16.6683340
  57.3024750  96.2168026  13.9384210  56.8974113  96.4312935  14.7787464
  56.6770697  95.6294250  13.5140550  37.8519821  47.5465012  20.9367156
  37.6990175  48.0570030  20.1415920  38.3620095  48.1281900  21.5003991
  28.2770324  40.6149340  22.9493380  28.1069946  39.7665930  23.3587742
  29.1162658  40.8937597  23.3156395  27.0528388  83.9557266  58.2009172
  26.9013643  84.8589993  58.4790993  26.2988830  83.7451267  57.6500750
  25.3073001  68.5302687  32.6373863  26.1586070  68.3112335  33.0162382
  24.8781776  67.6845598  32.5075483  57.1500874  85.5426311  45.2647257
  57.7852011  85.1569748  44.6612883  57.6825809  85.9109020  45.9697437
  46.4511395  82.6689148  71.0437918  46.7995691  82.7389717  70.1550198
  45.8914423  83.4390545  71.1430311  53.2722664  76.1828423  27.0089865
  52.7886343  75.6453466  27.6362276  54.1018772  76.3736725  27.4466705
  16.2313342  64.2236471  36.2695003  15.5589426  63.8578081  36.8442011
  16.9555521  64.4411755  36.8563771  23.1607103 100.9170914  37.0835090
  22.5807667 100.2313137  37.4145818  22.6552987 101.3452053  36.3924909
 111.9071237 101.5157318  52.1027040 112.8026322 101.7905426  51.9057894
 111.5004931 101.3919926  51.2450504  47.9709816  97.6401806  68.0036688
  47.0338440  97.8350163  67.9972410  48.2362890  97.7696419  68.9142132
  43.5137510  43.8957167  32.8659892  42.8489637  43.2072926  32.8849077
  44.1963577  43.5859251  33.4612322  61.3663054  89.8632717  53.6150599
  61.0421038  90.7594013  53.7049723  61.6065931  89.7870159  52.6916552
  53.4585190  91.7286205  35.4089141  54.3501759  92.0496655  35.5435205
  53.5508060  90.7769299  35.3642321  15.0671721  82.8381348  27.1207500
  15.6293213  82.3368740  26.5300226  15.6702542  83.4044743  27.6021886
  43.6181116  87.0193386  64.2814159  43.7656689  87.9637814  64.3313646
  42.6676846  86.9287109  64.2128325  11.7957425  72.6127481  45.8387947
  11.6068280  71.6756582  45.7896996  12.2192073  72.7274561  46.6895342
   8.2555920  86.3245678  30.6327581   7.8508556  85.4961014  30.8898115
   9.0675473  86.3614845  31.1383224  70.1331615  74.8854494  47.3293161
  70.2440786  75.4988813  46.6029358  70.8110905  75.1334620  47.9579067
  11.0957432  96.1459541  36.8359303  11.6900945  96.6736603  37.3693275
  11.6080987  95.3724861  36.6004157  60.5145931  99.7502136  69.1685534
  61.0673475  99.0417194  69.4982815  60.7603168 100.5106831  69.6953726
  47.1652222  36.8065023  10.3011572  46.8588257  37.6733375  10.0348008
  47.5153971  36.4192748   9.4988686  44.5320177  62.5020123  15.8083820
  45.0368929  63.2942915  15.9917533  45.0787544  62.0050955  15.1997888
  83.1961632   2.3922613  31.6809106  83.4549809   1.9027415  30.9001303
  82.7236557   1.7555194  32.2171283  33.7171125  77.1969223   0.6534663
  34.1838956  77.7910948   0.0658395  32.8567123  77.6003981   0.7681262
  38.3356190  82.0826149  40.3390741  38.2449770  81.1377144  40.2158546
  37.8451467  82.2678566  41.1399174  46.7975664  70.7087088  34.5221996
  47.2516489  69.9933910  34.9675822  47.4625683  71.0976362  33.9541030
  44.0985680  69.2675066  51.2978029  43.9222193  69.3549013  50.3610516
  43.7004423  68.4312534  51.5394735  41.7630768  77.5232458  62.4497700
  41.5642405  78.0601025  63.2168961  41.9645023  78.1559658  61.7603302
  24.4597626  91.3738918  30.5407476  24.7407126  92.2857857  30.4649162
  24.9325132  90.9188652  29.8438287  86.2324619   1.4133741  45.5047274
  85.7258224   0.6196266  45.3329182  86.0031128   1.6543214  46.4022636
  27.7133584 101.8966198  76.7543459  27.7113438 101.6813278  75.8216715
  28.4039640 102.5528812  76.8471813  90.1775265  81.3926315  27.5453043
  89.4655704  81.5307903  26.9205928  90.9249878  81.8514633  27.1619058
  61.6773987  12.2019613  15.6393552  62.6270580  12.1016133  15.5736828
  61.5441608  12.6964891  16.4480090  14.4376695  54.9623489  90.4715919
  15.2543843  54.7018433  90.8974361  14.1933322  55.7812500  90.9027863
  63.2459688  86.7970276  32.3894048  63.9457560  86.9947720  33.0118394
  63.0692530  87.6313114  31.9546962 104.0948009   5.4626691  21.4929080
 104.7353649   6.0279822  21.9245648 103.2782078   5.6206763  21.9666624
  64.1124868   7.1150684  59.6022511  64.3750191   6.4440823  60.2324009
  64.1972780   7.9395705  60.0810432  53.1730986  56.1256313  23.2735467
  53.0901957  56.4545965  22.3784828  53.6587667  56.8087864  23.7357831
  74.6866989   2.6001948  44.6540880  75.1387310   2.2890690  43.8698053
  74.5882702   1.8196420  45.1993227   6.8305111   0.3265651  35.4448247
   5.9075630   0.5400056  35.5820918   6.8162745  -0.4442474  34.8774815
  37.5923061  97.6058197  69.0974617  37.3538303  96.6988754  68.9055920
  37.7553916  97.6161957  70.0406075  50.5836678  70.6517410  24.5260358
  51.3043594  70.7633877  25.1460099  49.8228836  70.4614735  25.0748849
  38.4760737  63.8778257  38.3353305  39.2885756  63.4307528  38.5723925
  37.8293824  63.1760263  38.2611799  58.2551432  96.4936256  57.4438858
  59.0994120  96.9036007  57.6319408  57.6526594  96.8849754  58.0764103
  94.0232849   0.6623755  39.7737026  94.5494175   1.3568768  40.1700497
  93.4207058   1.1223052  39.1892481  36.8420267  73.2443571  57.6336145
  37.4846768  73.1255531  56.9342470  36.0049081  73.0122709  57.2316217
  25.4711890  94.3459702  20.8457971  26.4124942  94.4485950  20.7056284
  25.3818965  94.2215538  21.7906690  65.9647131 101.0200214  59.8555946
  65.0643682 101.0814762  60.1747131  66.5031672 101.0807991  60.6446457
  68.6085081   1.6551837  39.6127725  68.1611681   2.4348627  39.9417424
  68.7690830   1.8434152  38.6880994  28.3438516  75.9549713  61.0982943
  28.2368207  76.1873388  62.0206738  28.7364006  75.0821304  61.1151791
  16.0734046  98.3109665  36.2800050  15.3730655  98.8449860  36.6549420
  16.2870121  97.6795006  36.9669271  63.6095715  95.9041214  53.9126348
  64.3535852  96.5056133  53.9422035  62.8491688  96.4543056  54.1005707
  70.3985405  94.7072029  42.4094629  70.4036760  94.7341919  41.4526558
  70.6843472  95.5812073  42.6752615  92.0483875   5.1067227  28.7244892
  91.9490623   4.7775498  27.8311729  91.9844627   4.3267423  29.2756462
  43.4575987  97.7518559  23.5541391  43.9417219  98.2180882  24.2356730
  44.1355896  97.3933983  22.9813671  97.9262352   0.6717667  74.5961905
  98.8736916   0.7377482  74.4769859  97.8210449   0.1944573  75.4191971
  88.8886261  97.7720928  59.5991421  88.2226944  98.0827808  58.9857626
  89.7082138  98.1411171  59.2700195  52.7026081  99.2624950   6.3710934
  52.7933407  99.4518566   7.3049784  52.9362917 100.0827503   5.9365755
  49.7798347  90.5860710  46.0716534  50.4845858  90.8177090  45.4667521
  49.4677401  91.4258766  46.4086342 102.8701591  69.8872900  37.1675420
 101.9546318  69.8623419  37.4457741 102.9077053  70.6012917  36.5311289
  36.0926557  81.3247108  25.3541183  36.6409039  82.1076679  25.4053235
  36.6955185  80.5991459  25.5164242  44.5511150  87.4862289  56.1622381
  45.4912186  87.4719334  55.9826946  44.3402386  86.5851212  56.4067173
  63.3114767  98.0929375  34.0106726  63.3545351  98.5575771  33.1749153
  63.4426069  97.1731567  33.7803936  93.3631229  28.7582731  22.1925402
  92.4872971  29.1364264  22.1141243  93.4566784  28.5619736  23.1247115
  27.5554442  41.1225414  91.7797470  27.8660703  40.5633640  91.0676575
  28.2122946  41.0203743  92.4684715 104.1105747   4.0503109  33.6502528
 105.0431347   4.0754321  33.8645554 103.8032341   4.9420381  33.8133407
  58.7276030  82.2204018  76.7756367  58.6695051  83.1509876  76.5591764
  59.2214489  81.8363476  76.0511684  53.7231922  88.2262421  19.2972374
  54.1274977  88.6925030  18.5655463  52.7826405  88.3501911  19.1698337
  57.6317883   8.5026735  73.3138514  58.3239651   8.4824318  73.9746952
  58.0964375   8.6060989  72.4834108  36.9671750  50.8435297  28.9007831
  37.4766970  51.3168335  29.5585108  37.3750520  49.9786043  28.8586521
  19.5970869  18.5621572  33.9152670  18.6951458  18.2595205  33.8096952
  20.0640988  17.8047824  34.2681336  78.1968546  78.5153770  21.2133026
  78.5064077  77.7930880  20.6667638  78.3415318  79.2976141  20.6809402
  72.5458956  90.6474400  40.0678825  72.9231453  89.9675083  39.5096564
  73.0191898  91.4441204  39.8280597  85.0313187  75.6725883  65.8410025
  84.8979473  75.0672340  65.1116228  84.4506741  76.4092350  65.6501150
  20.4527307  86.2888336  22.4453688  20.8217287  86.3046837  23.3284426
  19.8146677  87.0023251  22.4395633  52.7093840  85.4822254  32.1894860
  52.7957106  84.5864201  31.8634224  52.8794909  85.4126167  33.1288743
  62.0697165  87.0483589  47.8412199  61.9527864  87.9764843  48.0440521
  62.9456329  86.9952488  47.4588823  61.9696236  80.1858139  47.5546646
  61.0199261  80.1454353  47.4420834  62.1238041  79.8148680  48.4234905
  43.0435944  25.9295630  60.9654093  43.6457348  26.4486742  60.4323244
  42.9009867  25.1312041  60.4569626  28.8648391  86.1602688  36.1284208
  29.1882014  85.9129238  35.2621126  29.6469545  86.4365673  36.6061115
  80.4429531  10.0221920  46.5548468  80.1598835   9.4307035  47.2521639
  81.3364792   9.7444081  46.3531542  22.7633429  98.7967110  53.6300993
  22.0423603  99.1500854  53.1090021  23.5039020  99.3708706  53.4347820
  52.6000214  94.9509144  70.5795956  52.4504137  95.3669453  71.4285755
  53.2487822  95.5087852  70.1504993  58.0544472  83.4019089  57.8793573
  58.3257294  82.5034904  58.0677605  58.6164761  83.9430809  58.4338713
  69.9010468  47.4608898  28.2656789  68.9985847  47.2960615  28.5388637
  69.8459387  47.5825977  27.3178482  51.6248608  69.6887589  48.9668131
  52.3530912  70.3036785  49.0550470  51.3273478  69.7978592  48.0635929
  43.0399513 103.1907845  41.4537001  42.4936771 102.4119473  41.5596437
  43.8963890 102.8494453  41.1963463  35.3434324  75.6310701  43.4894896
  34.7290659  75.6033802  42.7559948  35.0483966  74.9340725  44.0754795
  55.9573984 101.9290733  47.3690462  55.8309555 101.9748306  46.4213419
  56.8563747 102.2281647  47.5054598  64.5169067  77.3439837  61.9113255
  64.3473864  78.2855749  61.9413614  64.9967623  77.2129774  61.0935211
  44.9223042  86.9399834  46.4361620  45.1805115  86.1530399  46.9160461
  45.4865599  86.9449615  45.6629753 102.0123577   2.9225767  44.9405432
 102.3626614   3.4587660  45.6518936 101.5734386   3.5474563  44.3633890
  92.7959251  17.5004399  49.6852541  92.6352310  17.7328897  50.5997896
  91.9265842  17.3196948  49.3277597  84.8381138  79.7529745  55.7020760
  85.2845764  79.9473763  56.5261602  84.5366859  80.6048012  55.3862333
  80.5981159 105.6224632  31.7661786  81.1975670 106.3670349  31.8162012
  80.7643318 105.1268673  32.5680470  50.8307886  75.9912062  54.8939180
  50.1844788  75.8154154  54.2100954  50.4400635  76.6897535  55.4188919
  53.9398384  90.1934719  63.2139254  54.8925114  90.2856445  63.2263708
  53.6529112  90.5588055  64.0508461  50.0598812  99.7309303  53.8734674
  50.0521994  99.3938160  52.9776287  49.1978025  99.5040512  54.2221546
  34.0660858  81.7607021  69.0893936  34.8189139  82.2808838  69.3702745
  33.4572411  82.4004459  68.7202501  88.3357430   6.6016221  41.7433643
  88.0080700   7.2853494  41.1590862  88.9748669   7.0475513  42.2991514
  19.4260168  66.7645264  30.7668900  19.9637866  67.2454882  30.1378322
  19.1523039  67.4255705  31.4027619  98.7592411  29.4424176  32.9333830
  99.4665527  29.9303555  32.5116396  99.1678715  28.6241055  33.2155490
  64.0217829  96.8263149  72.4693060  64.7130013  97.4013329  72.7976513
  64.2613506  96.6602516  71.5575743  46.8072033  87.6896667  21.5186715
  47.0955420  87.5039768  22.4123240  47.4793434  87.2947979  20.9632111
  27.8973150  69.4529963  71.1133003  27.2005701  69.0360308  70.6064320
  27.5820899  70.3437901  71.2661266  41.4338684  89.9371719  32.4712300
  42.1612406  89.9157906  33.0930901  41.2131071  89.0166855  32.3291206
  23.9941692  85.1381683  54.3310738  23.7526226  84.4972420  53.6624193
  24.0160799  85.9739113  53.8649321  37.3724461  48.6883020  91.5670681
  36.7640448  48.4345722  90.8730221  37.9502296  47.9317904  91.6674805
 100.6285191   1.6001198  74.8465681 100.8525658   2.5247234  74.9521351
 101.4734650   1.1535004  74.7933578  96.6903114  37.7325225  26.0795188
  96.9538975  37.8032184  25.1620460  97.3377323  37.1456122  26.4701796
  31.0964084  96.0431385  47.2401142  30.2170825  96.3306522  47.4857903
  31.5220690  95.8365726  48.0722046  41.1513472  86.3975906  10.4185224
  40.7926750  85.5693150  10.7371759  41.4522600  86.8477535  11.2078524
  38.2720113  72.4115515  68.3149385  37.5540853  72.9457664  68.6546898
  38.9852381  72.5436878  68.9394999  75.2970219  89.7186470  48.8937902
  75.8519268  89.1096306  49.3810368  74.4119310  89.3678951  48.9928436
  55.2580500  91.9097710  58.2137203  55.0629044  91.8214321  59.1466475
  55.7834339  92.7076244  58.1534243  34.0569687 100.9217644  30.7948852
  34.7640347 101.2622166  30.2468109  33.3134198 101.4956474  30.6104231
  93.3461380   6.2168807  56.6185331  92.4724102   5.8380920  56.5218306
  93.3348560   6.9916373  56.0565233  58.7672615  85.7317543  13.1602752
  58.6004639  85.1104164  12.4515104  57.9012537  85.9215450  13.5211694
  28.1719685  93.6739635  20.8260369  27.9763889  92.9422283  21.4113092
  28.1212926  93.2979298  19.9472511  77.9914618  80.8320332  49.0955162
  78.2336903  81.6399765  49.5480394  78.4946728  80.1490784  49.5388937
 101.1777306   4.3234506  28.2707429 102.1011353   4.4560450  28.4851623
 100.7026196   4.7494200  28.9842176  33.2055616  83.6178112  79.2652035
  33.0548692  82.6804447  79.1432905  33.1021857  83.9927673  78.3905840
  28.4560204  10.7506859   2.4794903  27.5406599  11.0287750   2.5113398
  28.7365055  10.9517717   1.5866719  46.4229386 105.9324105  34.7865200
  46.3529675 106.5355309  35.5265069  46.3683979 105.0619772  35.1809835
  59.7079897 101.5663242  33.1356645  60.2278471 102.1652412  32.5996876
  58.9737940 101.3180923  32.5739098  43.2338667  84.0026093  22.0063329
  43.7620115  84.7773933  21.8139768  42.3289490  84.3005562  21.9136786
  94.0317345  12.8341961  41.8108225  93.6580563  13.3790350  42.5034666
  94.1836262  11.9864798  42.2285986  77.0180655   4.0994248  32.4351120
  77.9514027   4.2984802  32.5091743  76.9736814   3.3972734  31.7860794
  23.1292915 103.3560848  24.3626070  22.8254032 103.9676952  23.6919236
  22.4439454 102.6893234  24.4069362  53.3465481  93.0943108  44.7783136
  53.9010763  93.3706379  44.0486765  53.1502962  93.9038086  45.2499437
  13.7208462  91.2531090  61.5470552  14.2684627  91.0873985  62.3144436
  14.2973340  91.7119026  60.9359837  41.3851881  74.4001770  66.0319996
  41.2004232  74.1734695  66.9434261  41.8986464  73.6631680  65.7012272
  22.7714133  85.1867485  34.0714812  22.6951671  85.6959724  33.2645655
  21.9883752  84.6363258  34.0822363  46.6982643 106.2226951  41.3174677
  47.4365227 105.6154870  41.2674093  46.0314171 105.7485458  41.8141890
  44.8275471  88.8717461  87.3386002  45.0024605  88.3614159  88.1293011
  44.3711424  89.6520805  87.6532555  37.6271439  83.0409813  49.9840975
  36.9649291  83.1540489  49.3022490  38.3688045  83.5684204  49.6874905
  69.5567703  91.9599533  67.8226233  70.1919460  91.5272808  67.2520304
  69.1203260  91.2427711  68.2824039  79.7077560  93.3647442  22.3657298
  78.9444828  93.8941383  22.1346807  80.4382229  93.7879467  21.9145703
  63.1595325  84.7635746  18.9099944  62.6900768  85.5773258  18.7265182
  62.5463247  84.0719795  18.6611915  92.8916645  66.1102104  43.3597898
  93.2292747  66.5940857  42.6060629  92.9764843  65.1897907  43.1110620
  42.4749374  97.6690769  17.2960138  41.9799805  97.1534538  16.6593146
  42.2697210  98.5785103  17.0791304  52.5687456  86.2338543  16.4273477
  51.9623804  85.9864330  17.1254420  52.3193645  87.1295357  16.1997652
 100.2946758  18.0774283  58.8734674  99.9876976  18.9741206  58.7395191
  99.8333931  17.7810442  59.6580744 100.3821333   0.2377481  49.6410227
 100.4667671   0.6492681  48.7809515 100.8030517  -0.6160384  49.5404863
  26.6624951 105.3373623  34.1816831  26.2849879 104.6775341  33.6000133
  27.5315046 104.9983406  34.3964219  68.6558056  81.7274475  21.1999059
  67.7002144  81.6900635  21.2408829  68.9422083  80.8632946  21.4956260
  47.5680399  29.0756059  68.0555439  47.6886559  29.2638969  68.9862585
  46.7678308  28.5516214  68.0189276  99.5327377   0.7048573  56.3146114
 100.2216530   0.2748266  55.8079576  99.5726490   1.6218606  56.0430527
  33.3833599  65.8710098  53.8069677  34.1672993  65.7665443  53.2677412
  33.6188602  65.4829550  54.6496916  99.3923569  13.6495435  42.3332691
  98.8511181  12.8660309  42.2363234  98.8313770  14.2724967  42.7952957
  87.7015877  93.1063175  58.8241720  86.7880440  93.2995796  58.6136532
  87.6564598  92.3664284  59.4297791  61.1173916   6.2549806  14.1335905
  61.8122387   5.8523548  13.6127186  60.4757214   5.5557293  14.2582536
  79.6276474   8.6405575  29.6582365  80.1208210   8.4403378  30.4538035
  79.7888184   9.5714712  29.5044351  37.1097183  51.0316992  23.0899405
  36.4988995  50.6215334  22.4776530  36.8013716  51.9345808  23.1671453
   5.1122075  25.3080344  54.1263771   4.7510251  24.4461894  54.3337536
   4.5759311  25.6237936  53.3990955  51.1618757  79.0181303  59.4438076
  51.7170048  79.7332621  59.1329145  51.4184237  78.2662678  58.9098454
  89.0294266  17.8991425  83.8014412  89.4936085  17.1655524  84.2046928
  89.6800900  18.3107400  83.2327080  50.7001543  76.5319681  70.6338739
  50.9678125  75.6169224  70.7192087  51.0980177  76.9691038  71.3867664
  45.5570078  73.9107990  53.3873701  45.5081367  74.0926409  54.3258667
  46.2867069  73.2975149  53.2999086 106.4088535  32.4111509   2.0100312
 106.4826298  33.3619547   1.9277868 106.1470127  32.2690296   2.9196876
  61.3481569  73.2396793  55.3542805  60.6036282  73.7250614  55.7096815
  60.9543085  72.5874901  54.7748280 110.4959393  23.2711673  74.5512867
 110.1777744  23.0823112  73.6684847 111.3552094  22.8512740  74.5911264
  32.1284986  99.0190411  40.2981472  32.4764299  98.2776260  39.8026872
  32.4438238  98.8795185  41.1910868  60.6901932  92.1207142   7.0577079
  60.4239464  92.9233837   6.6092962  60.5385113  92.3028660   7.9850948
 111.5990639  11.5160871  52.1358347 111.2671852  10.6679869  52.4304771
 111.6435432  12.0456040  52.9319954  38.8843083  67.7983761  19.4548666
  39.5949888  67.3372412  19.0093100  38.1533217  67.1805239  19.4429171
  85.4966068  89.5032406  44.8213720  85.1875687  89.0283108  44.0498924
  85.2681541  90.4164410  44.6478844  63.3568525 101.0575771  48.2839584
  63.3255863 100.8599091  47.3479128  64.1257143 100.5850220  48.6029911
  67.7819777   1.0541322  23.6536980  67.8842258   0.3151211  24.2533970
  67.4088001   0.6692292  22.8607178  61.3627577  88.4221745  44.4814920
  62.2293901  88.7953568  44.3205023  60.9530783  89.0263367  45.1006699
 104.2629910  21.3482046  37.5427866 104.8348045  21.6799402  38.2350326
 103.5179615  20.9687877  38.0088401  18.2353413  12.7648687  27.3980880
  17.9255879  11.9349194  27.7606726  19.1324186  12.5837517  27.1175861
  86.2206268  90.1256943  57.0755720  86.1031342  90.9462261  56.5968800
  87.1168804  89.8569107  56.8737984  82.3993874  89.6204090  74.8946142
  82.7528477  88.7764072  74.6135998  82.9475689  90.2687740  74.4526339
  26.1940241  84.7381687  24.7106433  26.8278432  84.9812508  24.0358019
  25.9131169  83.8556862  24.4686532  28.7581229  97.2288322  39.3477011
  28.1976247  97.0832729  40.1098585  28.3845949  97.9990005  38.9192891
 105.4472923   7.2546566  23.9253592 105.2044964   7.9763824  24.5053554
 106.3977242   7.1847481  24.0149283  98.2148681 105.7105837  70.5584097
  98.5960398 105.9751015  71.3956499  98.3611498 104.7655533  70.5165529
  92.9271889  83.5415649  55.1340723  92.4429607  83.9946938  54.4438362
  93.8470554  83.7180328  54.9367380  49.2533541  75.4022026  60.0696135
  48.9073610  76.2940836  60.1023912  48.5116339  74.8678398  59.7858191
  77.0978689   3.3705726  52.8419924  76.7422533   2.5119841  52.6126528
  76.7024708   3.9703351  52.2093964 102.8876019  36.0570669  36.5068531
 101.9994831  35.7230878  36.3806415 103.2668591  35.4833865  37.1726513
  35.9087491  79.5201492  41.1638546  34.9609208  79.6085787  41.2640190
  36.1457682  78.8025665  41.7513275  94.7014713  35.6929541   8.5268378
  94.7478199  36.4307618   7.9187876  94.2433548  35.0087500   8.0387491
   2.9825214   2.4394165  41.5010214   2.4443533   2.5261420  40.7142019
   3.3910340   3.2984713  41.6076708  50.9665203  89.8990345  31.6208100
  51.7732716  90.4013252  31.7352009  50.8993006  89.7658920  30.6753016
  45.8386135  18.3402538  59.8634768  46.7413282  18.3585453  59.5456696
  45.3158569  18.1355059  59.0882158  47.2958612 101.1065102  55.8686638
  46.4787197 101.3280106  55.4220629  47.5321770 100.2458572  55.5227613
  80.6704903  12.3614895   0.0685344  81.1241436  11.9042754   0.7766217
  79.8318100  12.6212502   0.4498072  32.0077777 104.2004681  85.5480576
  31.5820718 103.6269283  86.1852932  32.9441381 104.0527248  85.6808376
  77.8558969   7.6630503  27.6450443  78.2850981   7.0176113  27.0834136
  78.5277510   7.9130834  28.2793379  95.2604961  84.3440151  53.5972023
  95.0917530  84.0835571  52.6917124  95.6675148  85.2074528  53.5261822
  16.1660206 105.5144882  32.8722668  15.8051896 106.1792469  32.2856379
  16.9523776 105.9193897  33.2382250  59.7593737  88.7652969  20.1848984
  59.9254513  87.8337479  20.3293777  60.6154490  89.1289616  19.9588001
 109.3119335  21.9466734  57.8622150 108.9172935  21.4502764  57.1452188
 108.5696793  22.3550677  58.3077621  47.5083685 102.9530334  25.8798671
  46.9900846 102.2030735  26.1717153  47.2601843 103.0735588  24.9632907
 109.1524124   1.3287482  49.4168568 109.1855431   0.3784556  49.3069506
 108.2528114   1.5069284  49.6910763   3.7694851   2.3197363  66.8490171
   4.0180936   2.7130881  67.6854992   3.6469483   3.0649599  66.2609196
  37.5269318  96.6979027  39.0252781  38.1038928  96.0725021  38.5868478
  36.9122553  96.9740009  38.3454466  24.1619873  85.6706905  51.1397648
  23.6058140  84.9321270  51.3875914  24.0198112  86.3194561  51.8290472
 104.4336891  28.6722946  32.6110101 105.2220345  29.2151308  32.6021910
 104.1857052  28.6250949  33.5343218  61.3934660  90.7470989  64.5555115
  61.7335701  91.0445309  65.3993702  61.8786907  89.9427128  64.3717957
  25.2498746  70.6611919  45.2087593  25.4248381  71.3662624  44.5854664
  25.8770728  69.9760485  44.9776077  93.2678318  14.2492759  21.1500430
  94.2155361  14.1572881  21.2481022  92.9893208  13.4319317  20.7369876
  41.4405394 100.5659771  14.5070231  41.9587564 100.5890656  15.3114784
  40.7282829  99.9558067  14.6983719  68.5018063 102.8048134  60.9781265
  68.0422783 103.2713413  61.6762829  68.9418364 102.0806313  61.4232874
  67.5029898   6.1872274  57.9754734  68.0893373   6.9406277  57.9060698
  67.5448895   5.7710105  57.1145201  43.2624960  92.7738476  90.0447273
  43.5867262  93.3386040  90.7462597  42.3208284  92.9432869  90.0167370
  75.2255058  56.1158514  34.8517847  75.5373478  56.0430956  33.9497352
  74.3095732  55.8407640  34.8114848  54.7639704  90.1863384  32.6586962
  55.3139973  90.3856468  33.4163094  55.2097464  89.4595242  32.2236586
  61.3353348 102.3621273  59.3443108  60.9707832 103.1293201  59.7856188
  60.6406021 102.0736599  58.7523890  65.0487423 105.1938057  35.2042294
  65.9080362 105.4749203  35.5185843  64.8628426 104.3948555  35.6975389
  29.1548419  28.8421178  87.4557209  29.4003534  28.0917692  87.9969597
  28.2426882  29.0165067  87.6876640  37.3010802  96.9864750  86.1466312
  37.6404691  96.0926056  86.1918449  37.8680563  97.4878788  86.7326069
  75.8852005  97.3991013  33.7754679  76.8358994  97.5056076  33.7428546
  75.7395267  96.4792156  33.5544896  59.2794561  95.8567142  66.8092060
  59.7016525  95.0337791  67.0557117  59.2878342  96.3797283  67.6108408
  36.9000888  69.2632675  44.3820524  37.7748489  69.1806602  44.0023184
  36.6399384  70.1642990  44.1905022  43.4531546  68.6428785  57.8082561
  44.0485048  69.3801832  57.6734304  42.5785208  69.0265369  57.7446175
  56.0443735  10.6264043  25.2464056  56.4465094  10.0054944  24.6389604
  55.7235193  10.0834167  25.9664392  32.3816586  16.4578044  57.6279259
  31.9314027  16.7730343  58.4115934  32.1136069  17.0641410  56.9374657
  87.7689750   0.3998155  64.8593855  87.5619800   0.1024503  63.9734030
  87.4977071   1.3176603  64.8734665  12.9795444  13.5120320  67.2458935
  13.4128785  13.8491952  66.4618206  13.5303855  13.8087285  67.9703093
  53.1051922  63.6186171  15.9089208  53.0296659  64.2578363  16.6173863
  54.0469027  63.4748602  15.8154166  38.8946080  94.3527031  48.3032370
  38.2101512  94.6849823  48.8840485  38.9285183  93.4136677  48.4856939
  85.6631756   4.9770412  49.6357059  85.3254509   4.0822837  49.5959854
  85.3752613   5.3041083  50.4879761  48.4783077  66.3013554  56.0202456
  48.8670349  66.5847874  56.8477678  47.5430107  66.2246084  56.2088442
  68.8190508  77.3058367  42.4867058  68.5907888  77.6764059  43.3392334
  68.9935064  78.0672741  41.9335222  57.7092743  24.9083185  88.4182835
  57.5273609  24.0168834  88.7157440  58.6409569  25.0351691  88.5974884
 107.9674339   4.3887052   9.3828821 107.6895523   4.0998501   8.5136449
 108.5019588   3.6676204   9.7153699  51.1998987  30.3069091  57.0525169
  52.0909405  30.5421662  57.3112249  50.6659698  30.5100608  57.8205538
  37.0960450  86.7940617  11.5356886  37.7729559  86.9481087  10.8766782
  37.4660945  87.1450043  12.3457098  56.5603065  95.8778381  66.2912321
  57.4012327  96.0210800  66.7254639  56.6558599  95.0296402  65.8580208
  70.6376314  94.6380615  39.7781396  70.7208300  93.6958218  39.6314931
  69.7905540  94.8661804  39.3951845  54.5579529  89.4913197  36.7944527
  53.8470697  90.0197411  37.1572900  55.3530312  89.9782658  37.0111656
  30.0712180  81.0374737  38.4725094  29.7661352  81.0738945  39.3790579
  29.3113708  81.3007259  37.9533219  58.8500881  89.7464848   7.5216037
  58.2374573  90.1524067   6.9082981  59.5799828  90.3634739   7.5746793
  95.8028698   6.4388227  25.3660274  95.8567524   5.4921210  25.4967332
  96.0700607   6.8121624  26.2059402   7.7449107 102.8019810  30.4164577
   7.2897029 102.0612621  30.0160122   8.2396805 102.4165154  31.1395454
  20.9788251  48.1740904  72.9008198  20.5312490  48.1389713  72.0554352
  20.6672120  47.3996353  73.3691692  46.6131783  93.9418697  24.0665746
  47.0365286  93.1564713  24.4132018  46.3098335  94.4128132  24.8427367
  72.8082418  20.9164238  33.3045721  72.5980854  19.9968386  33.4671474
  72.5526953  21.3664889  34.1097856  58.6833000 102.3430157  20.5798888
  58.4443378 103.1271553  20.0856709  58.5496616 101.6220951  19.9645507
  48.0176258  81.3407612  44.3635416  48.8928843  81.7164707  44.4583797
  47.8752184  80.8569527  45.1771069  47.5071239  67.2483683  37.6716638
  47.9322481  67.3012257  38.5276461  47.0645475  66.3996410  37.6760483
   1.2068060   3.5169551   5.8963889   0.9627418   2.7282590   5.4120100
   0.6823674   3.4787083   6.6962224  94.9990368   4.5672020  89.6987820
  94.2745781   4.3241715  89.1222954  95.4662037   3.7465498  89.8553562
  89.1592121   0.4228522  56.0636473  90.0520229   0.1062403  55.9262419
  88.6534977   0.0295681  55.3524446  19.3745565  31.2525702   7.3773623
  19.0505624  31.5459323   8.2289487  18.5910773  31.1925292   6.8307483
 107.1902943   2.3347433  27.8840804 106.5401268   2.8548691  27.4118686
 107.2731495   1.5312526  27.3704958  49.3961287  88.4600735   0.6809308
  48.7662792  87.8857994   1.1165100  50.2492285  88.1654644   0.9997757
  96.8803883  18.2479763  53.4410143  96.1065769  17.9258204  53.9032555
  97.5722027  18.2471204  54.1025496  74.1793013  17.2531033  32.5137377
  74.1671848  17.3034358  31.5579391  75.0714302  17.5019658  32.7553988
  88.4779358  18.4734714  46.3603926  88.5877228  19.3814206  46.6428947
  88.7166023  18.4805238  45.4334497  75.5264091  75.6513643  17.4979842
  76.0124540  75.0813293  18.0938470  75.0966501  76.2862253  18.0711269
 106.1209393  12.9015386  28.6269617 105.4915524  12.3034096  28.2240534
 105.5805874  13.5736346  29.0423346  56.4989662  91.8205547  72.5213480
  56.5093517  91.6935349  71.5726709  57.2526026  92.3843193  72.6957798
  16.0644174   2.2409602  42.0751429  16.4823484   2.6980662  41.3453341
  16.5350127   1.4098188  42.1381950  52.2616720  98.2664585  43.5561800
  51.7533445  98.0392647  42.7775860  52.1861982  99.2183971  43.6221266
  46.3019991  90.5500793  56.8128586  46.0522318  91.4732075  56.8538904
  47.2557402  90.5633450  56.7326498  18.2234824   7.8509498  52.6664639
  17.4255311   8.3583879  52.8148317  18.7145126   8.3599007  52.0214128
  83.2447815  14.7847819  31.3230300  83.2855606  14.1928768  32.0741749
  84.0203285  15.3386867  31.4121866  59.0306187  27.1639109  50.5059814
  58.2898283  27.4509764  49.9720764  58.8469124  26.2438393  50.6955814
  86.0896206  86.6056156  90.6306553  85.9393692  86.0493279  89.8663235
  85.2441025  87.0242691  90.7921028  57.9896498  93.5581684  48.3812284
  57.0607328  93.5983086  48.6086655  58.1700897  92.6241493  48.2750082
  70.9283638  95.0074768  55.4879570  71.6255093  95.6267738  55.2718544
  71.3794422  94.1720963  55.6099987  59.0516758  86.0396194  72.9051590
  59.6956968  86.0428333  72.1970272  58.5574198  86.8501949  72.7830887
  53.9449930 100.6148529  76.2526751  53.2837200 100.2501011  76.8408108
  53.5247469 101.3836002  75.8671236  63.6571407  86.5121841  43.3523417
  63.0921888  87.1667767  43.7629175  63.5745859  86.6795540  42.4135113
  92.6789761   8.7845188  19.0598774  93.1249523   8.4742391  18.2718003
  92.5659847   7.9995686  19.5958984  67.4246883  65.6573296  48.4857225
  66.6774464  65.2554035  48.9287949  67.4741793  66.5400743  48.8525248
  90.0035858   1.0717294  35.6494927  89.7992039   1.7848338  35.0445628
  89.8603821   0.2753656  35.1380944  68.6314869   4.5840135  36.1152411
  67.8557396   4.3777314  35.5938029  69.0421677   5.3156459  35.6544995
  99.2507553  18.8706613  42.3856211  99.6907616  18.7970662  41.5387392
  98.3178711  18.8299894  42.1751785  24.8658562  16.9684947  46.6724014
  25.4386401  17.5871682  47.1256065  25.4648662  16.3784349  46.2149668
  45.5357170  95.4677105  74.6213770  45.7246780  94.5741177  74.9077511
  45.0345802  95.3592682  73.8130903 105.9376049 104.1349030  37.4236321
 105.1264858 104.3284130  37.8935933 105.8064556 103.2543278  37.0720387
  92.9885292   2.3524936  37.4698901  93.7998772   2.4058387  36.9648194
  92.4166965   3.0105698  37.0747089  93.8328934   4.7375375  52.7649879
  93.9253616   3.9893714  52.1751308  93.4082603   5.4107159  52.2332478
 107.6646042  13.4808981   8.1085289 108.1142426  12.8301954   8.6476380
 106.7396736  13.3805931   8.3336407  69.5083714 105.0741863  65.7417297
  69.2010307 104.1845989  65.5673265  69.4490099 105.5182457  64.8958492
  92.9969692  16.9203377  45.3330994  93.4644127  17.3370016  46.0570669
  93.6713696  16.7607808  44.6728230  89.8657036  32.5656486  46.2845039
  89.3634129  31.8941140  45.8230066  90.7519627  32.4866843  45.9315920
  87.7159500  99.4275761  14.2482209  86.9150639  99.9375725  14.3695569
  88.4144974 100.0814342  14.2212880  39.6157694 104.6857738  39.0339684
  39.7220278 104.9111366  39.9581742  38.7808633 105.0823593  38.7851954
  84.7434139  42.1533680  77.5564766  84.4322395  42.7398872  76.8669844
  85.0835705  41.3914871  77.0873690  95.1956654  27.0388341  53.4108305
  95.4089928  27.0118117  54.3435669  94.2895794  27.3460317  53.3811712
  45.7059948  37.1800186  90.9540808  45.4593174  38.0976059  91.0698480
  46.0325520  36.9096805  91.8122813   2.6731229  18.5674548  15.9933281
   3.0486423  17.7194273  15.7565439   3.0516857  18.7663198  16.8497014
  70.2458572 104.4906235  89.0670395  70.6839609 103.9465714  89.7214890
  69.5475006 104.9316216  89.5508289  70.4036903  93.3916759  62.6922369
  70.2078390  92.5574303  62.2657204  71.3291311  93.3284569  62.9284525
  83.2410717  75.9249735  24.2955971  84.1311169  76.2697411  24.3676686
  82.7455902  76.3996029  24.9630213  47.9579449  94.7373009  53.6145210
  47.3441601  95.1755238  54.2039776  47.9008007  93.8122559  53.8537884
 102.1885872  19.7850406  60.1118946 101.5198231  19.1412318  59.8784304
 102.9236507  19.2617381  60.4313660 105.2773094  51.8232203  63.4907913
 105.6283665  52.6710033  63.7632799 105.2795887  51.2952328  64.2892027
 102.9986954  13.4479225  75.0584698 102.0535851  13.4595418  75.2097034
 103.1383896  12.7038693  74.4727230 103.6552429   3.7285239  63.7551594
 102.9172802   3.6907452  63.1467104 104.2884064   3.1030589  63.4028435
  91.5685463  98.2740116  53.5513496  92.1226501  98.9934731  53.8539839
  90.7770252  98.3402634  54.0855169  40.6625414  95.4020977  16.3637221
  40.3364086  94.8369217  17.0640397  41.2621069  94.8457146  15.8665490
  98.2486439   2.6998726  46.6061020  98.1805420   2.5035989  45.6717157
  97.8888798   3.5826984  46.6922379 112.1738720   5.6955969  17.2277391
 112.5127411   5.1814693  17.9605913 112.4230957   6.5969300  17.4319887
  93.9381409  16.3753045  24.2969108  94.8641682  16.4074135  24.5370579
  93.5512161  15.7571530  24.9169183  85.2019596  18.9393914  46.3428783
  85.4131126  19.4898391  47.0969677  84.6762180  19.5026445  45.7749224
  66.8779421  96.2824535  36.7646623  66.1144590  96.6805267  37.1828341
  66.5569592  95.9852982  35.9132504  94.7503567   2.4134384  51.7078257
  95.1322842   2.3823559  50.8306694  95.4611111   2.1412332  52.2883129
   6.4115638  18.4927046  41.4984989   6.3402402  17.6600766  41.0317278
   6.9142151  19.0552688  40.9093475  97.7998066  28.7902784  29.0205288
  98.4081459  29.4196558  28.6331820  96.9552994  28.9953423  28.6192822
  12.8191984  30.8792853  44.9349546  13.2765901  31.4649200  45.5383253
  12.7729595  31.3695788  44.1141558 111.9115067   1.9282405  42.6412630
 112.5328445   2.1359104  43.3391571 112.0084000   2.6442558  42.0134401
  60.2482176  78.0083847  13.3384013  60.7821989  78.5449409  13.9242351
  59.8528957  78.6355829  12.7329504  49.3554831 102.6696110  81.5585327
  48.9115953 102.0186424  81.0149860  50.1870441 102.8278828  81.1116695
  69.9248552 100.2314186  25.8478355  69.0333700  99.9026012  25.9634423
  70.1789570  99.9327183  24.9746537  37.9446769  83.9189911  84.3122959
  37.6015806  84.7377777  83.9543819  38.1989098  84.1374493  85.2088833
  81.7295361  99.6608257  36.6446662  80.9233665  99.3339062  37.0439696
  82.3114586  99.8316097  37.3852205  77.1983862  85.0676346  47.5445700
  77.4372482  84.9520588  46.6248846  77.1384954  84.1770267  47.8902149
  80.8831787  25.1288676  25.9964395  81.0751629  24.3451834  25.4814506
  80.4323959  24.7999239  26.7741370  44.2960405 101.2729073  45.7693624
  43.5226345 101.0293961  46.2780666  44.2136335 100.7758999  44.9554729
   1.3575198   3.9888400  29.4901633   1.3040458   3.0670461  29.7424889
   1.5878481   4.4456446  30.2991819  15.6173801   7.6860768  18.6326385
  15.5285382   6.8254054  19.0420079  15.7600236   7.4966371  17.7052784
  89.2260742  21.2922311  52.6929665  89.6320438  20.4847407  52.3777151
  89.7711086  21.9912338  52.3316288  32.6138973  83.1827736  83.3503914
  31.9215822  83.8422871  83.3948898  33.1666207  83.3640766  84.1105556
  95.0038719  23.7016678  47.9596853  95.5836391  24.2647219  47.4467802
  94.6753788  23.0595183  47.3304224  22.4957418  83.8831711  14.9487066
  21.7671251  83.2974052  14.7432196  22.0771909  84.6883583  15.2532125
 105.4449844  15.6523120  41.6928101 105.1583290  16.0570228  42.5115108
 106.3541126  15.4007733  41.8554401   4.2686486  10.7414031  26.0343981
   4.0795726  11.2229526  25.2290463   4.3327630   9.8273784  25.7574892
 112.1681023   4.2152336  57.3849249 111.2568283   4.2218706  57.0920801
 112.3239517   5.1044917  57.7029848  66.7442656  97.6068020  51.7163801
  67.6926708  97.7051735  51.8005323  66.6224003  96.7049122  51.4197636
  65.5929947   2.9805955  46.9139433  65.1410198   2.6051709  46.1582947
  65.4454565   2.3500609  47.6188517  55.0057030 101.8328476  16.1975944
  54.1588306 102.2071838  16.4403141  54.8069382 101.2413788  15.4717278
 100.3489971  40.5085754  25.6350756  99.8684311  40.3364515  26.4448071
 100.1169205  39.7799540  25.0593305  82.3449898   2.8004706  15.4611993
  82.2824097   2.5508344  16.3831532  81.5803146   2.3962539  15.0511825
  35.8175731  98.0699825  65.4641581  36.6594648  98.4744072  65.2546549
  35.8899450  97.1773624  65.1261902  69.9286842  97.7515030  47.2124386
  69.5439196  97.9398632  46.3564539  69.7089911  96.8345451  47.3772478
 101.4673424  34.4207621  51.9846725 102.1933651  35.0059342  51.7686033
 100.8766365  34.4847631  51.2342024  32.5145268 102.8732777  35.4388547
  32.0888162 102.0269489  35.3020120  32.1397686 103.4414959  34.7658587
   3.3490181  21.2668872  63.8523722   3.4997898  21.6027904  62.9688168
   4.1210851  20.7333565  64.0407610  67.9615784  95.9512615  20.2074385
  67.5453854  96.0171413  21.0669017  67.2320843  95.8605289  19.5943868
  65.6923056  27.9065633  32.8936076  66.2929010  28.1845140  33.5851741
  65.3445292  27.0692968  33.2006383   2.7115363  17.2666752  37.6678896
   2.3679261  17.2920513  36.7748499   3.6357009  17.4982691  37.5756049
  41.0983562  97.1233273  35.5571294  40.3108740  97.6300335  35.3587627
  41.4993668  97.5828934  36.2948442  74.4231129  25.4671454  34.9475646
  73.7799120  25.2624655  35.6262636  74.1426229  24.9545956  34.1893768
  95.9414577  89.7549438  74.0258074  96.4209175  89.9125481  73.2124710
  95.7754612  88.8122463  74.0271521  74.4091129   7.8684366  32.6285434
  73.8286352   8.4039652  33.1693602  73.9047813   7.6967627  31.8333030
  46.7183876  34.7883105  70.9396648  46.5786219  35.0669074  71.8446970
  47.0316839  33.8867545  71.0122585 111.5387344  29.5125651  15.9178710
 111.5538883  29.8364615  15.0172639 112.4560070  29.3310952  16.1226046
  17.6428199  13.0607378  33.9592052  17.8772366  12.1343720  33.9032793
  17.6350844  13.3611286  33.0503941  68.0692101  31.7265058  37.8393769
  67.1329546  31.5917373  37.9859853  68.4958172  31.1958742  38.5121870
  94.1240692  85.0587654  25.9627461  94.4842625  85.5948067  25.2562380
  94.6973419  85.2305031  26.7098069  62.8515196  89.5690060  31.6583276
  62.3944330  90.1252747  31.0275578  63.5912991  90.0997353  31.9537544
 101.1504173  21.5914202  41.6312933 100.7780075  21.3429379  42.4773407
 102.0811653  21.7261672  41.8095827 106.8043137  58.9795685  88.0123329
 107.4203014  58.3767653  88.4287739 105.9719753  58.5068798  88.0087662
  80.0305462  68.5114002  38.4478879  80.2211475  69.0953159  37.7137566
  79.2844152  68.9172411  38.8892627  18.2602239   3.9974010  21.7286944
  19.1641724   4.3070754  21.7853522  18.3329654   3.1081730  21.3819766
  51.1095715 105.7539463  46.4351368  50.9363747 104.9005127  46.0377836
  50.4704094 106.3405895  46.0307169  73.5764074  73.4902143  35.2504444
  72.7883053  73.0330610  35.5439377  73.3461332  73.8347435  34.3875980
  98.6091232  16.3373017  48.9745951  98.0425072  15.6233287  48.6823225
  98.0318165  16.9097316  49.4798422   5.8779877  26.9305348  39.6585131
   6.0063642  26.1909175  40.2524090   4.9274981  27.0158648  39.5842099
  70.1791811  16.7663789  33.4566450  70.0465393  15.8392012  33.6540794
  69.4441175  16.9979155  32.8889251  75.4630518   2.2236370  39.8710251
  74.9621773   1.5077576  39.4800377  75.6492615   2.8128546  39.1400123
  18.6000085  32.8320503  42.1508837  18.3197248  33.7462783  42.1077585
  19.5322549  32.8771091  42.3632956  22.7512193  72.2957277  90.1005459
  22.4409270  73.0725145  90.5659008  22.7342653  71.6000652  90.7578182
  26.0579824  83.9606285  76.8639517  26.7366815  83.2930183  76.9634247
  25.4926395  83.8430500  77.6273632  78.8807058  13.7328935  32.1346474
  78.2440186  13.8200426  32.8440595  78.3501339  13.7081158  31.3383365
 106.5755081  15.9088230  45.9223032 106.4238071  16.4052165  46.7265511
 105.7039165  15.7941723  45.5435991  76.5513945   7.7356499  38.9519072
  77.1736860   8.4607530  38.8952088  76.5163469   7.3801130  38.0638766
  79.0331650   6.5327001  42.0010471  79.3031931   5.7106823  42.4104404
  79.7197294   6.7180407  41.3603401  74.5139742  94.5132732  62.9397392
  74.9045944  93.6956787  63.2482624  75.2052307  94.9296951  62.4249649
  96.8994236  11.5198457  10.6664205  96.9917583  11.9790614  11.5011823
  97.5125504  11.9631541  10.0800896  12.7809262   6.4525235  53.0438137
  12.9584348   7.3913234  53.1019258  12.1655107   6.3697702  52.3153591
  52.5403404 103.8289165  41.7805004  52.6305628 103.0030155  41.3051367
  53.4071732 103.9856434  42.1550226  90.7149601  97.1511841  78.0122137
  91.1113167  96.5458584  78.6388826  91.0649300  98.0088329  78.2534599
  25.6060600 103.8207722  64.6469259  26.5159988 103.6397076  64.4114351
  25.6318927 104.6863651  65.0547457  61.5561962  79.3339586  32.5459480
  61.3422823  80.1824760  32.9338789  62.4406290  79.1437387  32.8587270
  83.7892723  32.1219873  61.3891649  82.9655361  32.1478248  61.8760109
  83.7137222  31.3476872  60.8315086  23.2866836  19.2982161   8.9784825
  23.3954406  19.2083275   9.9252260  23.3069992  20.2425933   8.8236558
  92.9391193  23.3179069  53.3527899  92.6594448  23.5678792  54.2334318
  93.7526321  23.8026214  53.2132196  55.9521341  89.5727730  47.2469139
  55.2887774  90.2360153  47.4374247  55.5142927  88.7394142  47.4202347
  55.3123665  85.4053974  48.5842133  54.6400261  85.8870220  49.0661192
  55.0607824  84.4864178  48.6759138  97.2002792  18.3497560  27.8207088
  96.8634129  17.4907291  28.0753231  97.0888519  18.3786833  26.8704581
  84.0911102   0.3374551  29.7035742  84.9906445   0.2710898  30.0239897
  84.0758133  -0.2090015  28.9178348  92.7708435  34.1107535  59.5307016
  93.4755611  33.5488939  59.8530626  93.2038212  34.7170687  58.9297485
 107.8088474  13.4650683  76.4977074 106.8768024  13.2502329  76.4606428
 108.2453251  12.6200080  76.6053486 103.6839390   7.8359884  66.2817812
 103.6782646   7.0803052  66.8692684 102.9029560   7.7238846  65.7398081
  83.6270714  10.0263560  54.7969484  83.1472206  10.4155672  55.5280352
  83.0830193  10.2066219  54.0303040 107.5328732  60.7836628  90.9266281
 106.6965580  60.5174685  91.3086510 108.1359291  60.0757694  91.1534405
  42.2079039  89.9762344  22.6901174  43.0331373  89.9585342  22.2054458
  42.4613476  90.1958370  23.5866523  75.5645418  21.4038730  18.6650407
  76.2617588  21.6592336  18.0609584  75.7157946  20.4723954  18.8253701
  93.0345249   9.4398296  60.6835127  93.9301395   9.4428557  60.3457212
  92.4891472   9.6202153  59.9178410  45.7244968 102.7521515  40.7111406
  46.3116598 102.0606899  40.4055834  45.7527828 103.4133339  40.0195694
  88.2423306  31.1068082   8.8396162  87.8530502  30.2445745   8.6938453
  88.7189388  31.2942362   8.0309474  88.8165665  20.8087564  31.3061714
  89.6890640  20.4152966  31.3186073  88.2177258  20.0625825  31.2769055
 102.0043278   6.2131071  32.7691388 102.7174282   6.8483406  32.7043986
 101.2954617   6.6917574  33.1988287  85.8769894   2.5926197  25.2765799
  85.4657841   1.7796892  25.5703306  86.7132664   2.6196173  25.7414865
  94.3932915   0.8697931  19.9823630  93.9990234   1.4836735  19.3627357
  95.2330685   0.6363524  19.5867407  77.0741796   2.4824446  57.9922009
  77.9401159   2.0771390  58.0381680  76.9838715   2.7514702  57.0780325
   7.5540090  46.2763834  68.3523655   7.6706845  45.6006289  67.6845551
   6.6065532  46.4034128  68.4015942  54.5005322 100.2100277  88.4860992
  54.8613644  99.9360561  89.3292904  53.9820337 100.9886169  88.6890697
   4.7004667  11.3178778  13.3494163   4.5108411  11.9812608  14.0128887
   5.6535155  11.3325548  13.2615829  74.1626930 102.2692680  70.2293587
  74.3080568 103.1521034  70.5695009  74.0361214 101.7297268  71.0098171
  76.9576502  95.9939384  15.3045869  77.6946592  95.9644604  14.6945250
  76.4539862  96.7619038  15.0348055  47.2202635  88.4040165  27.9163718
  47.6404333  87.7347279  27.3762417  46.3031340  88.3917427  27.6425958
  97.6677513  16.8223751  60.3889990  96.9518089  16.4580584  59.8684883
  97.4816990  17.7604771  60.4287624  54.2840385  95.3661346  68.0939054
  55.0007629  95.6120110  67.5090313  53.5132790  95.3326702  67.5272989
  90.7297516   4.1916475  52.0889568  91.3542557   3.4670049  52.1225262
  89.9096680   3.7881041  51.8046236 102.3001862   5.8454061   7.0571566
 102.9639339   6.4747018   7.3393977 102.5417805   5.0295889   7.4956828
  34.8009276  91.2694740  37.2435236  35.2714229  91.8600368  37.8318334
  35.0031638  90.3932953  37.5716138  55.4874897  69.6715832  68.7488461
  54.5767546  69.9560404  68.6721706  55.9899712  70.4852867  68.7892103
 111.9119549  28.7451315  25.0135732 112.7549362  28.6916733  25.4638505
 112.0564747  29.3765330  24.3088198  96.0076714 101.5717411  31.8017435
  95.1082230 101.5424156  31.4755917  96.4792061 102.0990372  31.1568809
 111.7329779  13.4316432  78.4865522 112.6534057  13.3571959  78.7385464
 111.4450836  14.2588317  78.8726950  25.2968168  24.3797421  28.2475495
  24.8005700  24.5530796  29.0475011  25.7455158  25.2043390  28.0606270
  99.2009163  29.2921567  16.4261770  99.4542885  29.4447136  17.3365390
  99.9457836  28.8273621  16.0449147  59.3777561  16.3963377  32.9594707
  58.5518599  16.8526995  33.1202984  59.6499491  16.0826468  33.8218737
  67.0777130 104.9668789  10.7853925  67.5656462 105.3472042  11.5158081
  67.1923590 104.0220070  10.8869243 101.5318108   9.0779305  24.5160270
 102.0742893   8.5849345  25.1315808 100.6970119   9.1916513  24.9703503
  61.8467760  87.5413895  56.5016699  61.2170124  87.8689098  57.1438265
  62.0511484  88.3017349  55.9572887  86.9177723  94.4064522  43.0115080
  87.6236153  94.1947269  43.6224031  86.4083195  95.0820446  43.4590197
 104.0421772   8.1611270  32.7095914 103.8918591   9.0013796  33.1427336
 104.4109440   8.3935434  31.8574023  91.7119122   5.7430410  44.0231037
  91.7694569   5.0531065  44.6840954  92.4595928   6.3122588  44.2053032
  90.3694725  16.6714382  21.0898638  90.1336956  17.3258340  21.7474389
  91.2692833  16.8894613  20.8468843  83.3807945   2.0937923  52.9128647
  83.2568741   2.5231689  53.7593365  82.6247215   1.5132664  52.8258085
  60.9717846  65.1736498  24.4003105  60.8273697  65.5142117  23.5174775
  60.3525305  64.4482756  24.4814754  94.9936581  17.2115505  18.7632942
  95.2684402  16.9419765  17.8869045  95.7192612  16.9535339  19.3317604
  56.5959740  95.9583092  39.5578265  57.1598911  96.0652447  40.3238487
  55.7256365  96.2137508  39.8635912  43.3986902 105.4561806  58.6528921
  44.0883303 106.0279369  58.9901209  43.2723236 104.8021698  59.3403101
 103.6178970  13.5991037  15.9151435 104.2238522  14.2015135  16.3465989
 103.5816193  12.8390777  16.4958966  74.7761106  13.7500417  10.9913242
  75.0215912  14.3232501  10.2650988  75.3192186  14.0440345  11.7226458
  33.9396834 101.0622215  25.5512404  33.8061976 101.0051250  24.6051145
  34.8458982 101.3548565  25.6480432  95.7875347  99.1487217   6.5506184
  95.5039883  98.6214542   7.2974932  96.7259216  99.2762184   6.6899258
  22.6224923  45.1285505  49.1422844  21.6859341  45.3217268  49.1844082
  22.7164078  44.5644426  48.3746958  69.3677950  89.5997524  56.6607332
  68.8405275  89.5668983  57.4589443  68.8896227  90.1936913  56.0821009
  74.1344404 103.6749935  25.7407904  74.7658825 103.1240845  26.2034059
  73.7870026 104.2590046  26.4149213  75.2648258 104.1819477  43.0126238
  74.9723053 104.5673084  43.8385534  75.6839657 103.3598709  43.2670593
  69.2227125  16.5085256  50.7356405  69.3411732  16.3350403  49.8017788
  68.2844305  16.3908350  50.8839798  11.8773532  17.5984669   9.1121286
  11.5406394  18.4766960   8.9344537  12.8092670  17.7300239   9.2866564
  59.5766258 100.8114815  41.7841625  58.9704132 100.2429008  41.3093376
  59.9273062 100.2580452  42.4819899  11.0746694  19.6795273  60.3875875
  11.2682700  20.1181412  59.5591164  10.8068347  20.3857327  60.9756136
  98.5713863  12.0403981  58.7163830  97.9154205  11.9315004  58.0278492
  98.5546970  11.2123215  59.1962194  78.5559559 104.0498066  28.2886076
  78.3758831 104.4039154  29.1594768  78.4571743 104.7985363  27.7004862
  12.6438165  20.1790786  16.5263832  13.0762255  20.1017833  17.3768413
  11.9027019  20.7632637  16.6867185   5.3562641   9.0835476  54.4485903
   5.9170932   9.8329973  54.2485189   4.7319144   9.4168931  55.0930309
 102.9299450   5.4387963  38.1363535 103.2878685   6.0392201  37.4824333
 102.1259117   5.1038969  37.7393579  31.1985922  87.5763321  59.7954845
  30.5247116  87.7059841  60.4627991  31.3722634  88.4545612  59.4566822
  23.0853820  33.8963628  40.2026272  23.0239272  34.8508620  40.2398157
  22.5506544  33.5931587  40.9363604  70.9093857   4.3896416  41.9896269
  71.7029810   3.9576462  41.6736937  70.6751776   3.9093101  42.7837706
  54.4788790  98.9774895  41.3007402  53.7934923  98.3564186  41.5472126
  54.6369076  98.8039684  40.3727627  84.9277210  37.3785233  18.1627738
  84.1460323  37.4280882  18.7129951  85.3590202  36.5674877  18.4319043
  25.8003879  47.5361061  16.6079724  26.3032627  46.9490242  16.0434508
  25.8208871  47.1169376  17.4682677 111.6089344  23.7102413  51.8049955
 110.7320213  23.3431149  51.6932821 112.1405506  22.9733205  52.1059227
  87.0589256  17.0231891  29.8366857  87.5717735  17.5111127  29.1923666
  87.6494598  16.3338625  30.1405382  22.2856188 103.4057713  31.7829061
  22.7931809 102.5944996  31.7618251  21.4221621 103.1567192  31.4532828
  53.9744282  86.3533783  67.2100925  54.4926929  86.8404961  66.5695095
  53.1646729  86.8565941  67.2955227   6.2012202  38.8664317  26.2204504
   7.0756471  38.4919643  26.1137557   6.3522059  39.8081779  26.3013768
  26.4544225   6.1166930  69.9525976  25.9451604   6.5749562  69.2841053
  25.8014965   5.6444192  70.4692030  23.5768318  40.3969669  23.1004357
  23.7985563  39.7526693  22.4281621  22.6338530  40.2943134  23.2288361
   6.5122724   1.8252417  80.7618523   6.1103016   1.4603183  81.5501881
   7.4101347   2.0294146  81.0233593  26.0200214  97.7941608  53.2867098
  25.7036495  98.5957813  52.8701305  26.2290096  98.0565357  54.1832113
  54.6876049 102.6455116  30.3377819  55.4180098 102.1599388  29.9544263
  55.0829887 103.4528923  30.6664777  59.0651369  87.3090839  17.6923299
  58.9912081  87.7181625  18.5545444  58.1597090  87.1667290  17.4163389
 106.7147732  10.4890907  46.4783716 106.0622692  11.1493516  46.7118835
 106.7063141  10.4719746  45.5213594  89.1749668  28.0471635  31.0922313
  88.2560635  27.7888870  31.1639762  89.4836712  28.0879259  31.9973660
  10.5598855  51.7055607   4.5346266  10.8880460  50.9977865   3.9800128
   9.6072239  51.6273499   4.4841257 102.4700356  20.0357628  76.5245438
 103.4250546  20.0543332  76.4625883 102.1772480  20.7129335  75.9146738
  92.2508812  19.3233466  47.1826267  92.0448399  19.3792033  48.1157160
  91.4377308  19.5710087  46.7425442 109.9671268  26.1886644  49.8993158
 110.1072598  26.1382818  50.8448601 110.8479118  26.2498140  49.5295715
 107.3082638   7.0706981  32.4206829 106.9982052   6.3010848  31.9434071
 107.3793411   7.7535772  31.7537093  94.4213009  40.9288740  30.8608675
  94.7367954  41.3271332  30.0496411  94.4238758  39.9883938  30.6827641
   5.8092338   9.7638714  46.1571503   6.2855071   9.2472178  45.5071783
   5.5251527   9.1242403  46.8101454 108.7220955  20.1311207  64.8127794
 108.2680130  20.2592444  63.9799356 108.1359291  19.5708585  65.3214502
  87.8184509  96.1796188  78.8788128  88.0533028  96.3969803  77.9766893
  88.3309174  96.7867661  79.4126511  97.5748348   3.5728255  16.3257849
  97.9953766   4.4324136  16.3038993  97.7018738   3.2215220  15.4444921
   7.8786558  24.9017835  35.9058380   8.4507275  25.1559830  36.6299558
   8.4763736  24.5885515  35.2269793  69.7481251  10.7638490  36.6314125
  69.1093540  11.4311743  36.3806486  70.5892515  11.1160958  36.3404536
  98.3593941  39.8918033  78.5827065  99.2994118  40.0120449  78.7173796
  98.1073189  40.6082582  78.0001450  88.6514091  10.5209935  35.1090789
  87.7958393  10.4524338  35.5327845  89.2709160  10.2081728  35.7683134
  56.3068151  97.5990582  58.8825274  55.3514004  97.5981522  58.8241196
  56.4957428  98.0408192  59.7104025  70.0023556  20.6828308  58.8678789
  69.9126530  21.3787532  59.5189381  69.1067362  20.3824019  58.7134790
 107.4678326  31.6927314  19.9560785 107.6856232  31.8612933  20.8728051
 107.5298405  32.5494742  19.5337284  93.4495258  24.8028636  40.5478573
  93.1438446  24.5273900  41.4120960  93.1393623  24.1185617  39.9547625
  91.3625240  26.8256211  68.9261770  92.0225906  26.7269707  68.2400227
  91.8638134  27.0490885  69.7104025   0.9962805  17.7367735  63.4106255
   0.5148900  17.4076343  64.1696787   1.5240601  16.9927239  63.1206751
  68.8324308 102.8312206  70.4134226  69.6738625 103.2804680  70.4934406
  68.3271265 103.1328583  71.1683512  42.6014328  15.0442588  25.1283622
  42.7578163  15.6074381  24.3703365  43.4766006  14.8132241  25.4397082
  18.6413205  31.1090779  61.3670778  18.1150174  30.3727770  61.0554647
  19.1408515  30.7525158  62.1016264  61.9793272 102.4903488  76.6789341
  61.3218737 102.4288177  75.9859705  61.4714670 102.5071526  77.4901199
 108.3550835  23.2594156  51.0352087 108.0342484  24.1062021  50.7249641
 107.6388454  22.6508570  50.8538485  66.1682892  80.2740574  26.1458230
  66.6112614  80.6030083  25.3636456  65.2389669  80.4310799  25.9786606
  86.8483162  11.0116911  43.6209011  85.9436893  11.1689436  43.8913727
  87.3342896  11.7624128  43.9621925 108.0823231  10.1621974  41.3643169
 107.9333782  10.3464603  42.2917271 108.9883423  10.4294205  41.2095308
  85.0502396   7.7252960  14.4080114  85.5792332   7.4284357  15.1484656
  84.2899609   8.1455278  14.8100233  60.6426239  68.6135578  51.0600948
  60.7468939  69.2695045  51.7493629  59.9169779  68.0654621  51.3588572
 101.9203091  59.8252249  43.6393452 101.6120243  59.6507931  44.5285940
 101.2662220  60.4193306  43.2713127 108.3887100  20.6397438  55.7048750
 107.6641369  20.3336382  55.1594257 108.7750626  21.3605356  55.2074575
  77.4892426  88.2317543  50.2749825  77.8012896  87.3902416  49.9422646
  78.2707739  88.7838268  50.3007126   8.3036792  10.0825262  40.5947018
   9.0416533   9.6534771  40.1616383   8.7090617  10.6763697  41.2265635
  28.9567304  32.7603817  34.1078877  29.6389079  32.2179341  33.7121415
  29.1000032  32.6755166  35.0504923  85.8708286  10.3847122  30.0879192
  86.4220810  10.0633502  29.3744206  84.9783039  10.3226304  29.7476363
  24.8652601  18.2973957  64.8689842  24.8766923  17.5489354  65.4655647
  24.0037012  18.2594812  64.4536352   3.4638789  25.6214046  32.7089906
   2.9478326  26.4201140  32.5994897   3.9262980  25.7467437  33.5376596
 105.3821373  51.7028522  60.5380106 106.1080265  51.1634159  60.2244473
 105.4616165  51.6804743  61.4916420 100.1076603   6.9676805  29.1009998
  99.5466805   7.6928401  29.3760967  99.8180962   6.2259758  29.6322775
   4.5585680  24.8006892  50.3562593   3.6225531  24.9385595  50.2110052
   4.6002793  24.0662265  50.9686804  57.4217033 105.0440979  54.4280386
  57.3968697 104.9918365  55.3834867  56.7247486 104.4556808  54.1377831
  82.8823376   1.8120573  91.1200428  83.0268860   0.9033630  91.3838863
  82.1406269   1.7710908  90.5163670 109.8087978   4.7978255  38.2737613
 109.8916245   4.0432411  38.8568354 110.6506634   4.8438662  37.8205681
  36.3243937  16.3154912  61.5853977  36.2699199  16.0918736  62.5145149
  36.7803621  17.1569300  61.5678978  59.7904634  73.0889463  77.9976940
  60.0768518  72.3109484  78.4761667  58.8456106  72.9736900  77.8966808
   7.9454356   5.8399129  45.6946421   8.2445961   4.9343553  45.6127882
   7.0735472   5.8407533  45.2996206  13.8580382   4.2623103   7.1640080
  14.3283129   3.4562653   6.9510174  13.0143011   3.9645898   7.5041580
  30.8413076   4.7207388  51.0505390  31.7973518   4.6985126  51.0919809
  30.6277180   4.2976493  50.2189112  67.2199059  32.0806408  80.7826519
  66.4568615  32.4437952  80.3330898  67.7899218  31.7740202  80.0774574
  54.2894173  39.4851542  33.1916428  53.5791779  39.7441268  32.6045084
  53.9705324  38.6889935  33.6166954  83.8572598  95.3743649  36.3051629
  83.1159306  94.7892475  36.4610791  83.8847256  95.4779148  35.3539777
  21.9211888  14.8549294  26.0189056  22.5609112  14.1714215  26.2184143
  21.6098452  14.6421504  25.1391220  81.0708332 104.7723675  22.9042435
  80.1139545 104.7611046  22.9262829  81.3061142 105.6608868  23.1714797
  12.3240471  26.6965580  33.7769437  11.9102359  27.3309207  34.3622446
  13.2323658  26.9907045  33.7086320  46.5591812  11.5679193  51.6375732
  45.6664038  11.9118655  51.6672134  46.4870644  10.6832790  51.9959593
  25.3329897  16.8362534  15.7538152  24.8899055  17.3493373  16.4295781
  25.2230716  15.9272015  16.0326958   6.8073630   1.1640439  23.8742876
   7.2612971   1.7159618  23.2374501   6.0029078   1.6422427  24.0753078
   4.9974063  33.6530900  11.2173545   5.1195878  34.5773697  11.4341772
   4.1244826  33.6120653  10.8267736  68.7360191  97.9963398  38.3544922
  68.0198574  97.4949360  37.9646969  69.3217516  97.3331261  38.7195945
  76.6126919  98.6057377  58.9492941  77.1664810  99.1944027  58.4364414
  76.2755632  99.1520309  59.6593285  15.9176528  27.4274993  26.6774487
  15.7832801  28.3158135  27.0077085  16.2198484  27.5497246  25.7774639
   4.0863085   3.6879686  33.8931680   3.2469332   3.3197874  33.6172628
   4.6256894   3.6734512  33.1025410  45.2701855   5.8504182  37.1436548
  45.9397602   6.4670885  36.8476415  44.4495964   6.3391078  37.0800638
  28.3696151  14.2264891  64.0624285  28.5312796  13.3676100  63.6720133
  27.5134277  14.1415787  64.4819117  18.9306569  11.2565899  35.8002257
  19.3685102  11.0312355  36.6210365  19.6272433  11.2371957  35.1440048
  91.4799690  23.7444353  27.1432114  92.2290707  23.4768963  26.6107702
  90.7156658  23.4983087  26.6221547   4.5661214  35.6222892  47.4441004
   4.1542664  35.0527430  46.7943144   4.6388996  35.0778389  48.2280111
  28.6481023   1.9717522  47.0436859  28.7066984   1.2124411  46.4638186
  28.3758450   2.6894170  46.4717865  88.6124325 103.1818008   1.8720414
  87.9035759 102.5543880   1.7302383  88.3582497 103.9499664   1.3606358
  70.9623194  40.5891752  88.6589813  70.1214647  40.8706093  88.2984352
  71.5043068  41.3780546  88.6466122  96.8913937   9.0918285  11.9739854
  96.9486904   9.2417383  12.9176366  96.6333961   9.9395651  11.6120267
  56.0069847 102.9918385  33.4363890  56.3013220 102.5195408  32.6575899
  56.4970684 102.5951195  34.1565728  93.7078953  98.1373787  31.2312555
  92.9645252  97.7734756  30.7504129  93.6713219  97.7108383  32.0873857
   3.8567030  12.4808538  28.1260872   3.7772125  11.6083217  27.7406001
   3.1456786  12.5259614  28.7653375   4.4874370  37.1868873  63.9393091
   4.7488037  38.0774379  64.1734791   5.3043270  36.6880059  63.9457512
  10.9092951  17.1989775  34.7459435  11.1825275  18.0528235  34.4105029
  10.7586133  17.3455560  35.6797767  84.8485184  27.8173113  26.9041538
  85.4209995  27.4665308  26.2219167  85.4479408  28.1482792  27.5730205
  19.8803532  39.0382981  53.9013624  20.3959203  38.6060858  54.5822573
  19.0241790  38.6122632  53.9425087  22.3155785  29.5903063  41.5136433
  22.9083419  28.8417482  41.4463806  22.0602202  29.6114945  42.4359083
  81.7583561  78.0193758  44.0136814  82.0066643  77.3142385  44.6114731
  81.4819908  78.7337923  44.5876741  89.6937752  87.1461773  30.0757217
  90.2343750  86.6023731  29.5027852  89.0536690  86.5394783  30.4477572
  39.5154667  32.7545261  25.6648588  39.6179032  32.8130054  24.7149539
  40.4100752  32.7807927  26.0043025   0.1647370  30.6081414  18.9116490
  -0.7042322  30.2260494  19.0346503   0.7526273  29.8545194  18.8599753
  16.5656531  64.3224859  10.6214619  16.2855923  64.9959469  10.0015855
  17.3365819  63.9276409  10.2140307 107.7965832  26.8896985  38.1949925
 107.1759224  26.9046402  37.4664330 108.6220551  26.6080284  37.8006768
  63.7036416   0.1227968   0.8927235  62.8090665   0.4483573   0.7928452
  64.1662118   0.4534070   0.1226887   8.0144930   8.4423035  82.4550915
   8.5525262   9.0405017  82.9736614   7.6624662   8.9863753  81.7506123
  10.3140092 101.5543556  21.8820572  10.4977620 100.7779598  22.4109077
  10.7639861 102.2661400  22.3371553  32.3848939  43.1766605  46.7739677
  32.3525929  43.0030441  47.7147388  31.9702673  44.0336084  46.6741848
  26.2748742  24.5171833   0.4427933  26.5181446  25.4316235   0.5872021
  25.4742622  24.3987465   0.9538922  96.8272781   6.3613296  29.5850563
  97.1954727   5.8538818  28.8617563  97.3305035   7.1755761  29.5869279
  20.2917361  26.0096169  47.5074768  20.0915265  25.8725739  46.5815353
  19.4540417  25.8876085  47.9542589   9.4555521  12.3026288  45.6604195
  10.2772856  12.3135614  46.1511993   9.6472472  11.7765915  44.8840380
  44.1076326  46.0882330  80.8230782  44.4634438  46.8162394  81.3326263
  44.7145176  45.3653240  80.9822178  17.8944778   2.1756724  52.7413177
  18.4070098   2.6782185  53.3745575  18.1969905   2.4862552  51.8879414
  22.0162582   4.1981050  38.9358592  21.6317868   5.0479394  39.1507888
  22.2436023   4.2657205  38.0085111  60.8572920  73.5907934   0.6075653
  60.4333408  73.7227748  -0.2404133  61.4763005  72.8763257   0.4572567
  35.5111670  13.5269916  46.4711475  34.6321416  13.7600625  46.7698526
  35.4769731  12.5790751  46.3426352  16.0557294  37.1594453  23.9483356
  16.1288023  36.6891217  24.7788095  16.5507257  37.9670548  24.0860963
  88.7458992  59.7647858  24.2973113  87.8088760  59.9299812  24.4018984
  88.8811398  58.8994932  24.6835923  29.2554450  42.7832651  37.4319911
  30.1460838  43.1338739  37.4399638  29.3315125  41.9465685  36.9733095
  33.3005190  10.1404655  51.4415836  34.1105533  10.2908075  51.9288969
  33.4514427   9.3192047  50.9736252  18.3142936  13.5107100  31.3189125
  18.0503488  12.8466594  30.6820440  18.6057997  14.2507839  30.7864189
  31.2785101  14.0393591  64.5575190  32.2113705  14.1125786  64.3559170
  30.8385038  14.2391944  63.7312651 109.4752026  20.5058742  36.0462785
 110.3401375  20.2135158  36.3337564 108.8747120  20.1657176  36.7095566
  31.6765499  51.1147213   9.9374700  32.0625663  50.9866619   9.0709698
  31.5049362  52.0551300   9.9866152  41.3024902  40.0682449  34.5645738
  42.2222137  40.2981091  34.6968699  41.3278198  39.1962051  34.1707015
   2.8315479  25.3627992  44.2888260   3.7167579  25.2495861  43.9426804
   2.5996941  26.2637591  44.0635538 103.0558300  42.2329712  52.6991653
 103.0675888  42.7106380  51.8697500 102.6564503  42.8417730  53.3205318
  21.3274455  31.7358541   2.8603017  21.6928387  30.9677076   3.2992455
  22.0668101  32.3379230   2.7761412  42.9931545   8.4306115  20.9443951
  42.9678822   9.2732948  21.3976908  43.9254665   8.2277656  20.8677006
  27.6207876  61.9088173  30.2018070  27.6042986  60.9966469  30.4914784
  27.0289779  62.3616409  30.8025932  20.9367108  19.4473672  21.0240865
  20.1476669  19.8454666  21.3917232  20.7049274  18.5270333  20.8996081
  25.9792876  24.6035361  33.2137489  26.6209483  24.5927548  33.9239526
  26.2927270  25.2841020  32.6180816   7.8927517  21.9206047  16.3020480
   7.1481574  21.5771055  15.8082676   8.1525654  21.1999059  16.8759143
  32.0415020   3.9460936  16.7497087  31.5987039   3.1279430  16.5243411
  32.6065063   3.7172353  17.4876976   1.7870158  61.8601942  32.4896526
   1.9401687  61.0040331  32.8893518   1.4817260  61.6602421  31.6047502
   0.9035747  94.3839359  32.9407907   1.8054785  94.4373798  33.2569337
   0.7603925  95.2128220  32.4839783  35.4971218  59.2602968  80.4169559
  34.9693608  59.3850040  79.6281910  36.4023089  59.3010044  80.1083851
 108.1417084  14.7851193  36.7838287 108.3038998  14.8398185  37.7256012
 107.2796631  15.1840425  36.6656828   3.4507918   9.8836464  35.0830317
   3.6084685   9.9446076  36.0251856   2.5018021   9.7859973  35.0048351
  33.5206914  13.8668442  58.4493208  33.0525851  14.6488214  58.1567097
  32.8708768  13.3710968  58.9475250   7.9018205  41.2214708  44.2631149
   7.0594400  40.7683468  44.2269802   8.3202314  40.8863401  45.0561190
  15.1905262  43.3530521   7.9913098  15.3991377  43.6989784   7.1235257
  15.4519033  44.0480423   8.5953796  85.9134197 103.6101055  76.9044256
  84.9611473 103.6791706  76.9726133  86.2455177 104.2838383  77.4977398
  52.4017715   7.3650020  15.5974197  52.2315216   6.8205523  16.3660693
  53.0324125   8.0178457  15.9012580  24.5827985  71.1376667  33.5407567
  24.8539591  70.3336954  33.0976582  25.2891564  71.7588186  33.3633900
  63.9229918  30.1757908  79.9402475  64.1110754  30.4831696  79.0534687
  63.0030680  30.3996110  80.0812531  34.8464298   4.9584672  30.0296521
  35.3476787   4.9926567  29.2149043  35.5016851   5.0680059  30.7187629
  28.3574700  18.5264099  86.0084248  28.4387302  19.2679155  85.4086018
  28.5756278  18.8881493  86.8673706   4.4874519  14.4527578  45.4077578
   5.2232969  14.1669071  44.8664141   4.0501097  13.6411989  45.6653166
  78.5262156 102.5022888  25.9661245  78.7637615 103.1045628  25.2610946
  78.4795332 103.0540371  26.7469096  27.2310233  48.2788181  43.1679201
  26.4279032  48.2873631  43.6886501  27.1510339  49.0390348  42.5918102
  31.6385293  37.9997230  63.3027887  32.5783777  38.1091571  63.1580734
  31.3751554  38.7900662  63.7741947  33.1428623  19.9984312  56.6899252
  32.6473951  20.0393534  57.5078917  32.5247574  19.6396244  56.0531855
  13.8597047  59.6712875  27.1417665  13.2968175  59.6324635  26.3685393
  13.3289945  60.1166487  27.8022432 112.2263147  11.4389718  12.4520993
 111.8348696  11.6607344  13.2969797 113.1385067  11.2338710  12.6572120
  11.1578906  20.1235533  63.6253691  11.9918513  20.4505944  63.2880449
  10.5249989  20.8060431  63.4020090  42.8983355  23.6392021  28.8943934
  43.5143805  23.5504508  28.1671786  43.3580446  23.2630467  29.6449947
  26.2282491  28.8418055  37.3435688  26.1005473  28.8477206  38.2921934
  25.9374762  29.7076941  37.0573497 111.4969063  19.1171384  52.9660606
 111.6444588  19.5112932  53.8257694 112.2273064  18.5089135  52.8528833
  12.7632272  89.1619968  54.0336466  12.2963238  88.4822845  54.5196772
  13.5843372  89.2772388  54.5119047  11.0427260 101.4064121   5.4361266
  11.6225398 102.1587467   5.3176022  10.3711832 101.7150593   6.0444009
  90.9767342 100.3999901  39.8705602  91.1563778 100.7431030  40.7459068
  91.7438793 100.6473064  39.3542719   0.4339868   7.9444242  13.0257428
   0.6726820   8.6592937  12.4356425  -0.1098078   7.3648822  12.4922121
  49.8110628   0.7450721  22.7521682  49.7237062   1.4924687  23.3437753
  49.1496563   0.8956029  22.0768094 105.1393700  32.1984839  47.5881624
 104.9903870  31.9086528  48.4881830 104.2771530  32.1504307  47.1752405
  18.6559045  47.8971434  33.1639647  18.8397229  47.7389193  34.0899301
  19.3556952  48.4841776  32.8777623  24.2506576  42.6465750  33.6413193
  24.5541286  43.0786085  34.4397449  24.0728474  41.7450953  33.9095592
  20.3817725  62.1788311  22.6287770  20.2797151  63.1295300  22.6733398
  19.5102108  61.8547630  22.4016380  99.9016476  68.7268782  71.7184114
 100.8092785  68.7607241  71.4162636  99.6030331  67.8487635  71.4818239
  43.2615566  39.4689345  27.9679775  42.9258919  38.7466836  28.4989309
  43.1084776  39.1931367  27.0642447  43.2863808  57.2441101  35.1221299
  43.9362669  57.7586412  34.6434498  43.4109402  56.3486624  34.8076653
  16.6842520  52.4711084  24.6600485  16.6553628  51.5440607  24.4234538
  16.6237295  52.9336166  23.8241911 110.6947136   9.8002350  25.6459165
 111.0924053   9.0357673  26.0626388 110.5371571   9.5257342  24.7425556
  80.9269142 105.4113102  55.1391888  81.1883831 106.2047958  54.6720314
  80.5350208 105.7301617  55.9521961  64.0944862  62.2282696  83.0012798
  64.4341469  62.6067877  83.8121986  64.8508358  62.1991682  82.4153423
  69.7596025  57.8638792  87.9053116  70.2400827  57.0685577  87.6754475
  70.4337549  58.4714937  88.2095337 112.0487118  63.5486507  24.2041469
 111.9274426  63.8179874  23.2936597 112.6903915  64.1671038  24.5534277
  59.6979713  19.2142582  82.0344639  59.2206573  18.3868074  82.0955276
  60.2453661  19.2334867  82.8194618  34.9582815  43.7924480  46.2283373
  34.8627758  44.3936634  45.4896545  34.0643716  43.5144329  46.4279985
  25.3946853  16.8370020  20.1501536  24.5301437  16.8894064  20.5576468
  25.6744146  15.9334767  20.2972126   0.3244809   9.9373502  61.4552021
   0.8959823  10.7001722  61.3673353  -0.5602294  10.3021145  61.4768028
 108.6725044  33.3328295  50.0052929 108.2168102  32.5119543  50.1916647
 109.2691898  33.4487557  50.7447243  20.8855677  29.3274641  29.9460793
  20.0127935  29.4026804  29.5602822  20.8490992  28.5248327  30.4663515
  10.6443501  26.5085912  12.2715127  10.9978342  25.8308983  12.8477180
  11.4115870  27.0052910  11.9871402  20.0510764  56.9337082  11.0200799
  19.8346591  57.6166773  10.3852963  19.4069278  57.0439577  11.7194724
  50.7087755  38.7615085  34.4658232  50.0070047  39.3692088  34.6991611
  51.1830044  39.2025352  33.7609577  98.9611340  47.7569008  45.3843117
  98.5414219  46.9664526  45.0448132  99.3968773  48.1420994  44.6240616
  32.1962023   0.4862932  35.8664370  32.2059298   1.3816357  36.2048125
  31.8246722  -0.0347533  36.5782714   9.1533327  49.3581915  23.8961291
   8.6848032  49.0759039  23.1106186   9.5154405  50.2134848  23.6646414
   5.8567095  60.6451178  61.8701363   5.9068334  59.9016571  62.4709558
   6.7202151  61.0547018  61.9233418 106.2968254  86.6345787  18.5912251
 106.8127537  86.2753868  19.3130445 106.0368347  87.5050926  18.8926303
  27.4337125  45.5077124  23.4187818  26.7826128  45.9047794  23.9972615
  28.2759261  45.7719040  23.7890673  13.9675498  41.9822836  15.4826117
  14.3207932  42.8550005  15.6552863  14.7369361  41.4461279  15.2907407
 107.8486538  94.7851944  44.8685789 107.1830559  94.3714714  45.4181671
 108.6714935  94.3807697  45.1435232   7.3413974   8.1011164  27.9962873
   7.2952300   9.0538961  27.9168439   8.2303798   7.9294682  28.3068991
  35.7449698  26.6740870  38.2451105  36.5319920  26.2533450  38.5912395
  35.4400420  26.0825825  37.5570869  53.9616151   0.1786203  40.6963778
  54.0167303   0.9657449  41.2382412  54.8178466  -0.2384501  40.7920408
  26.8943381  21.1786819  35.0547218  27.8063130  21.2666726  34.7776103
  26.8719554  21.5638995  35.9307003   1.9515216  49.9085236  28.7882304
   1.4499959  49.4369507  29.4533014   2.6855448  50.2915192  29.2686009
  27.6411986  28.5682869  42.3703957  28.0484319  28.7099624  41.5158081
  26.9361305  27.9439497  42.1991825  88.9148235  18.5892451  28.0502439
  89.2341709  18.2666922  27.2075033  89.5033741  18.1972194  28.6953521
  14.7369671  51.6329765  13.2069194  15.0032568  51.4887333  12.2988904
  15.5488908  51.5616417  13.7088382   8.2458282  27.8128934  14.2984319
   8.9877486  27.2844553  14.0042579   7.6055235  27.7418661  13.5904789
   3.7833345  88.2961750  85.3114510   4.6945187  88.5794926  85.3869915
   3.8391128  87.3799038  85.0402355  44.4964504  41.9356966  15.2034569
  44.8611307  41.6935158  16.0546827  44.1377592  41.1192894  14.8555219
  29.3632340  25.0183868   9.0600812  28.8628960  24.8154736   8.2696897
  29.3363380  24.2114973   9.5743155  90.2575111   9.6135342  48.2767296
  91.1154270   9.9737626  48.0521297  89.9273968  10.1919711  48.9642382
  27.5920129  46.7905760   5.9087265  27.5007248  46.6735077   6.8543446
  26.7091298  47.0052481   5.6076258  29.2601347  39.6278524  65.8180285
  29.8947310  40.3326702  65.6885910  28.5172153  40.0505972  66.2488317
  18.7558782  23.2898092  45.8582020  19.5942330  22.8759146  46.0633469
  18.9746678  24.2079639  45.6989717   6.6650862  33.9251304  25.1450801
   7.5582242  34.2023063  25.3493094   6.4897001  34.2993116  24.2816806
  28.6291337  21.3486528  63.3447361  27.7534151  20.9630871  63.3709860
  29.1176844  20.8796883  64.0212154  34.1334581  60.3566265  91.1812878
  34.2145276  59.9912930  92.0623112  34.8538041  59.9608707  90.6906700
  82.5995998 105.7984252  48.5114574  83.4437380 105.9815907  48.9239025
  82.7775482 105.0720834  47.9139662  18.7819934  18.6523783  10.6413054
  19.5121443  19.2074561  10.9151685  18.2715738  18.5168791  11.4396429
  58.4112549  25.1050305  27.6826668  58.3022118  24.9598336  26.7428470
  57.7487326  25.7600665  27.9022741  22.1446490  24.2117286  34.6894288
  21.4094663  24.5850229  35.1756263  21.7358828  23.7223125  33.9755559
  31.4532542  60.8154917  19.7839355  32.3857021  60.6060457  19.7300017
  31.2596798  61.2607384  18.9590049  39.3256855  33.0029249  47.1648788
  39.8784041  33.2115412  46.4117432  39.1031003  33.8541985  47.5417328
   0.1583824  60.7293987   9.3046355   0.0428725  61.4239645   8.6562008
   0.8764363  61.0358000   9.8584843   8.6480528  15.8350241  32.2421455
   9.4390684  15.3022540  32.1603942   8.5571027  15.9859383  33.1829882
   4.2356426  41.5770006  56.8069553   3.3030570  41.7885494  56.8489599
   4.3861541  41.3384104  55.8922672  22.0412660  14.6600223   9.3604344
  22.2994590  13.7660646   9.1359156  21.5294647  14.9575675   8.6082661
  19.1988492  22.9551196   9.0598959  19.9927032  22.9495192   8.5251111
  19.3194795  22.2319078   9.6752375  20.8885264  50.6267977   0.5163870
  20.2916694  49.9365568   0.8054607  21.7622375  50.2740479   0.6849929
 106.4229012   8.4609962  34.8369408 107.2952175   8.8522208  34.8843265
 106.4347649   7.9462892  34.0299916  10.9061885  61.8904543  34.8186779
  10.9358549  61.9589663  33.8643932   9.9853927  61.7214203  35.0181603
  94.6286583   8.8864911  40.3326941  94.9544716   8.1021583  40.7741642
  94.8345947   8.7443054  39.4087863  14.8314548  14.6485543  44.1986990
  15.3660369  13.8855195  44.4183159  15.2188826  14.9882638  43.3920193
  15.3672242  52.1071529  34.3337011  15.1675987  52.4826813  35.1912355
  14.6167064  51.5465069  34.1371536  28.6253142  19.1673410  29.6292782
  29.2302060  19.5253110  30.2790427  27.8750086  19.7614241  29.6476388
  36.2475705  28.4209657  55.6374359  35.9341025  27.8883076  54.9065161
  36.7381334  27.8092909  56.1864662  15.2175438  30.2579474  27.5492096
  15.0213110  30.1902127  26.6147900  15.1150155  31.1885118  27.7486348
  18.5381162  11.9028401  44.1474247  18.2508409  11.5909314  43.2892752
  19.4751000  11.7086422  44.1715002  57.2520971  11.7550433  28.0925846
  57.9260302  12.4283636  27.9993773  56.4277363  12.2413599  28.1048322
  16.6712868  17.4459338  21.7102909  16.7405367  17.4090648  20.7563114
  17.5050747  17.8187370  21.9967270 106.1979389  46.8102407  26.4401627
 106.8410206  46.1033487  26.4947581 106.5796757  47.5215673  26.9544792
  75.3659153   7.2742164  75.4543781  75.7278633   8.1459099  75.6136751
  74.4459867   7.3467040  75.7087517  14.3390393  63.9726830  13.7725830
  14.3737972  64.3603182  14.6470904  13.8090467  63.1830788  13.8814890
  22.5445104  18.6466897   2.2447933  23.0129838  18.6817276   1.4108044
  21.9185257  17.9304743   2.1379684  93.4951305 103.3803940   6.5345955
  93.6967182 102.4537659   6.6648138  92.5913334 103.3868885   6.2193966
  94.1849709   6.6608429  30.3035474  95.0402832   6.6405457  29.8743057
  93.7344837   5.8820277  29.9768329  41.0849571  20.3614616   5.8201456
  41.0857964  21.0442829   6.4909554  40.8322287  20.8156610   5.0163639
  32.6369786  24.8679614  30.5333591  32.6989198  25.4862761  31.2614250
  32.1007848  24.1513181  30.8727002   6.1302143  70.8942652   4.0461418
   6.2417722  71.8443394   4.0798688   6.8923247  70.5470133   4.5096475
  48.8081932  12.6290619  27.9901242  49.4051456  12.8026736  27.2622967
  48.4889078  11.7407584  27.8313565  41.8480015  33.0681491  42.1392488
  41.3058472  32.8905010  42.9078484  41.2214899  33.2888865  41.4500570
  43.1132030  14.2747176  28.4724021  43.4403276  14.3465531  27.5757074
  43.3121872  13.3741391  28.7285185  12.4994040  35.6780553   0.8931457
  12.7653790  34.8639631   0.4656605  12.4987590  35.4689670   1.8272296
  39.8593998  53.1030941  54.3943453  40.1162958  53.8320684  54.9589968
  39.7415042  53.4989834  53.5308599 110.1086235  99.6563721  56.6454649
 109.4885159 100.2997875  56.9885397 110.5956268 100.1292515  55.9705973
   8.5579985  37.4608612  25.5116558   9.2436522  37.6981306  24.8873043
   8.6428398  36.5126920  25.6116962  43.3444118  93.9447212  46.7357826
  43.0104685  94.5878410  47.3611784  44.0254259  94.4121933  46.2521267
 108.1335640  33.7253189  27.3591137 107.2342682  33.5172510  27.1057105
 108.0555248  34.5180416  27.8898978 109.1400623  35.4353285  39.6141386
 109.5067596  35.4901028  40.4966164 109.8152542  35.8128142  39.0503550
  11.7902100  74.8207331   3.8058308  10.8665931  74.9991703   3.6288449
  11.9477355  75.2061653   4.6677238  30.3760147  47.8987932  35.2968502
  29.5140052  47.6897621  35.6566787  30.6926584  47.0702744  34.9369574
  77.9170847  64.8066235  87.7338791  78.6243200  65.0902843  88.3131790
  77.1848059  65.3841925  87.9493046  59.6348953  50.3473759  27.6577711
  59.2485571  49.4716215  27.6531363  59.6749210  50.5963945  26.7343974
  35.8882165  20.2645111  38.7934089  35.9502840  19.3095779  38.7714601
  35.4652929  20.4961085  37.9665279  23.6033106 104.6735668  36.5528369
  24.4457316 104.9819565  36.8866825  23.1696367 105.4636860  36.2305593
   5.6397730  36.8553782   8.4485269   6.1031967  37.3600674   7.7801257
   4.9671909  36.3768530   7.9638839  90.9176445  64.4439316  72.7705622
  90.5582905  64.5512009  73.6512375  90.5521584  63.6147785  72.4620962
  93.6648464  53.1698418  55.8632135  94.1272068  53.8784075  56.3108635
  93.2903957  53.5823727  55.0848532   2.7934480  49.4324923  44.1889477
   1.9491419  49.8240995  44.4126081   3.4265202  49.9015093  44.7325230
 109.1779900  22.6778698  27.3691869 108.5068512  22.5927711  28.0463600
 109.8291206  22.0127010  27.5923705 109.2080021  53.2061148   5.1531392
 108.7842464  52.8025818   4.3956250 108.7912846  52.7926064   5.9091759
  98.7153149  31.1441064  58.3703089  99.5862484  31.0511017  58.7563801
  98.8815975  31.3302326  57.4462175  41.2775087  38.2643676  37.2673607
  40.6719732  38.6629272  36.6422939  41.9537640  38.9282227  37.4023032
  25.0920725  90.4397011  90.6330490  25.4062462  90.8073711  91.4590931
  25.8567643  90.0013733  90.2597618  75.9205198  18.7958264  19.3461668
  76.3866568  18.2606852  18.7038481  76.0204268  18.3209467  20.1712370
  70.1292706  69.4558144  90.9960270  70.3549814  69.4911289  91.9255638
  70.9461832  69.2129421  90.5602455  75.9442616  22.0364451  11.3707507
  76.6917276  21.4636922  11.1990476  76.3325834  22.8981805  11.5219152
  11.1868715  19.6127319  56.2062597  11.5861595  20.1105714  56.9196701
  10.3700840  20.0754261  56.0191679 109.1615105  33.9325213  45.8232021
 108.9902592  34.4056535  46.6374779 108.2928371  33.7111902  45.4875660
  49.2884445  52.3373699  18.0385661  49.6505976  52.8069735  18.7899315
  48.6806870  51.7048597  18.4216952  39.5742345  41.9645834  42.3340082
  40.4741716  42.1562862  42.0701981  39.0371084  42.5384903  41.7877865
 102.9637527  16.1269724  25.0325012 103.5945415  16.5353930  25.6254029
 103.3706665  16.1914611  24.1684985  58.4529066  32.2211385  44.3164682
  57.6581335  32.6504016  44.6331739  59.1580772  32.8294182  44.5377350
  21.6447878  10.5960166  45.9131384  22.5993133  10.5403018  45.9579277
  21.4606261  10.8230710  45.0016737 106.6242599  15.2613604   4.0287611
 105.9067822  15.8823109   3.9027402 106.8601322  14.9849641   3.1432089
  22.3427129  25.3416252  49.2758369  22.9784322  25.2505708  48.5660458
  21.4963007  25.4023147  48.8329601  24.2450738   8.5927081  10.4095960
  24.3047285   7.7827281  10.9161592  24.5704150   8.3564526   9.5409369
 108.7556458  21.7002130  41.9313622 108.3498764  20.8465409  42.0824194
 108.0675507  22.3325157  42.1385765  24.5899248  25.2073193   5.1215357
  23.6361098  25.1929832   5.2006602  24.8467326  24.2857409   5.1528096
  12.6595175  97.2218227  33.1248093  12.9090559  97.0594025  34.0345240
  13.4779990  97.4637890  32.6914835  95.9873199 101.0292149  44.2614555
  95.2448845 100.7969379  43.7037277  96.6461849 101.3669777  43.6547852
  67.3525143  70.9386969  80.1085091  67.0790291  71.4162302  80.8917046
  68.1580734  70.4922628  80.3692818  80.4950523  72.3333120  82.7140713
  80.6223774  72.0468092  81.8096733  79.5828056  72.1174097  82.9075336
   8.4962946  12.9067290  30.5371642   8.4005761  13.3475780  29.6929359
   7.6637912  13.0609977  30.9836745   0.8677223  42.6668739  14.0709984
   1.7367117  42.9122591  13.7533903   0.6421938  43.3493853  14.7030938
  11.5986574  54.5051718  21.8327808  11.1712408  55.1721430  22.3700881
  12.4227452  54.3250799  22.2851944   7.1541888  98.7279224  35.0187802
   8.1001991  98.6292076  35.1262546   6.9980681  98.5454369  34.0921950
  16.5341496  69.6847486  13.9544475  16.1237907  70.3999758  14.4405425
  16.0959446  68.8958645  14.2736232 102.4661827  19.1747880  24.4469357
 101.6823864  19.5780861  24.8200822 102.8492641  18.6804020  25.1715446
  67.1788454  32.8468323  46.8654394  66.2973833  32.9690814  47.2180271
  67.7429914  33.3529425  47.4500942 102.9189110  44.9122620  41.9786930
 102.9124451  45.2758121  42.8641415 102.8344917  43.9674759  42.1070671
   0.3050402  25.1103210  22.8502154   0.6504574  24.6693182  23.6263847
   0.0352332  24.3981910  22.2702956  94.1766071  95.7576656  59.0449429
  94.3193054  95.1490402  58.3200693  94.7658634  96.4896297  58.8626432
 103.2086563  29.5595717  58.1468201 103.6925220  30.3626251  58.3397341
 102.9937840  29.1970873  59.0062809  99.1814709  84.9666309  76.0180330
  99.1025448  85.1559258  76.9530058  99.7624302  84.2070770  75.9756470
  41.2668562   3.2089907  42.1607924  41.3825893   3.6891693  42.9807091
  40.5168915   2.6365370  42.3222876  35.8799839   5.2387357  47.8075504
  36.4022708   5.2550393  47.0055628  35.0693393   4.7959521  47.5564909
  36.7824006   3.0730328  27.6696992  36.5241671   2.5046036  26.9441390
  36.1348987   3.7779728  27.6638508  50.8945799  12.5161695   8.0498266
  51.5119028  12.2812355   8.7426078  51.4481354  12.7894449   7.3183036
  51.3727665   7.3581702  59.4090843  51.8985796   6.5711010  59.5514822
  50.7804441   7.3896646  60.1603460 109.8920250   3.7380508  23.4265876
 110.1705647   3.0200228  22.8581834 109.7363377   3.3247060  24.2757869
  91.9660282  22.2710490  44.5992756  91.2978363  22.6297259  45.1833153
  92.1945858  22.9989409  44.0212011   8.4682554  27.8868079  33.2916021
   8.8966161  27.3611569  32.6160073   9.1895533  28.2536411  33.8028717
 112.6764948  14.5156646  25.7624054 111.7376536  14.6279252  25.9114242
 112.7965580  14.7111261  24.8330998  27.8765059   1.2995580  24.1097140
  27.5381732   0.9002472  24.9111581  27.5911570   0.7116726  23.4102869
 105.3258419  68.5178947  11.5990007 105.1167583  69.3679619  11.2118232
 105.7145309  68.0171347  10.8817923 106.4917374 101.5864277  39.3229747
 105.5695248 101.7958450  39.1749644 106.9462776 101.9595909  38.5677481
  90.3678894  15.2487397  12.7563059  90.0697517  14.4094324  13.1068873
  91.3229561  15.1851332  12.7622926  96.3674927  12.9293776  27.1451688
  96.5481091  13.8103759  26.8173742  96.4499760  13.0059171  28.0957317
  28.6236906  25.7950234  37.5884986  28.8456583  25.4327607  38.4462452
  29.0271616  26.6630197  37.5833964 109.9116993  17.8139424  49.0520811
 110.0188351  18.3390486  49.8451853 109.0281296  17.4524248  49.1217327
  26.0748267   5.2231526  38.4528112  26.0501814   4.2832324  38.6321831
  25.6393361   5.6222266  39.2060161  78.6415243  74.2704582  31.3430572
  78.0518770  73.5487175  31.1247849  78.6498451  74.2919159  32.2999787
  52.9816961  11.1710179  14.2496085  52.0251513  11.1749864  14.2848074
  53.2244730  12.0966995  14.2295301  39.3265080  36.3221264  21.3160682
  39.7764659  35.5702615  20.9307551  38.5825968  36.4797807  20.7347131
  33.2411957  17.0286632  41.3246012  32.5066853  16.6391373  40.8502579
  33.5437250  16.3341916  41.9097614  43.3728504  41.8391037  53.0439138
  43.8057661  41.3233805  52.3635864  43.9853191  42.5504065  53.2314348
  15.9891629  23.6534357  31.5070200  15.7403123  23.7769127  32.4230218
  15.8282089  24.5039225  31.0983634   4.4000050  54.4325638  13.1874609
   4.5636889  55.3497696  13.4069502   3.6690328  54.1782713  13.7507069
  13.6848593   1.1206248  91.2059402  14.3541920   1.5466440  90.6704617
  14.1233695   0.3518902  91.5706062  46.9822979  57.8432465   1.2228662
  47.7563238  57.6806259   1.7620054  46.9007111  57.0601130   0.6785484
  16.7874837  79.2204332  43.3908796  16.3397884  78.6853123  42.7355576
  16.0912561  79.7414780  43.7908888  24.7802711  42.4688244  53.0480576
  23.8431644  42.5852823  53.2045841  25.1875997  43.2351542  53.4518576
  38.9640951  35.9886312  35.7378078  38.0948663  35.5879831  35.7501650
  39.5460916  35.2890325  35.4410315  90.0332165   1.6574223  91.3072205
  90.8492947   1.3779183  90.8923340  89.6934414   2.3416546  90.7304955
 111.4872265   1.7576802  90.1743126 110.6413555   2.0618084  89.8453140
 111.9501877   1.4489603  89.3954754  12.1980298  40.2414465  36.6826701
  11.9076288  39.3336892  36.5939403  12.4329782  40.3285408  37.6064920
  11.1461151  80.8711624  41.6768980  10.2714014  80.8309269  41.2902594
  11.0458052  80.4671478  42.5388384  41.5364504  43.3117104  51.2167740
  41.9172430  44.1787386  51.0771465  42.1401167  42.8794527  51.8209028
   1.7447457  48.4008312  51.1446524   2.1923935  47.5980473  50.8774757
   2.4185261  48.9135075  51.5912104  71.5487759 105.8157640  91.8908405
  72.1351616 105.3878321  91.2669373  70.8296196 105.1950505  92.0081425
   6.6887635  63.5274172  12.1696305   7.3152781  62.8059816  12.2265887
   6.9700301  64.1429090  12.8466010  16.7996013  41.6378117  46.9362545
  17.2501028  41.8574142  46.1207485  17.0476389  40.7297564  47.1098757
  40.4111481  26.9660378  42.8986502  39.5613575  26.6509962  43.2066107
  40.7269287  27.5311923  43.6037159   0.8556444  39.6466064  35.8577967
   0.4800684  39.9439573  35.0290918   1.2342626  38.7909842  35.6558418
  11.4732885  26.5565062  18.7379348  11.3316190  27.0821810  19.5252252
  10.6160402  26.5254545  18.3132076  18.5265017  48.5970116  26.8670440
  18.5467505  49.0836763  27.6910472  18.4707224  47.6790142  27.1323633
  41.5658283  69.1002846  11.6947639  41.1928558  68.5031033  11.0463035
  42.2735929  69.5467663  11.2300551  11.0458171  63.3183765  27.0833468
  11.7998374  63.6544561  27.5678396  10.8104169  64.0272665  26.4847684
  47.4526405  15.6385458  40.5470610  48.0738497  16.0936570  41.1155701
  46.6222954  15.6750953  41.0218573  22.0524979   8.6643213  17.9938734
  22.4952126   8.4875423  18.8239241  21.5627718   9.4716448  18.1508100
  32.0692182  32.1862936  24.7357249  31.4242697  32.0728946  25.4338741
  32.7860975  32.6684022  25.1479006  44.0495825  44.5708323  24.4515228
  44.0123272  44.2210102  23.5613155  44.0215206  45.5207348  24.3369532
  16.8104839  58.7643766   3.4346718  16.9187510  59.6655035   3.7387815
  16.7278314  58.8406849   2.4841049  65.2970362  52.6700783  19.4996536
  66.0602093  52.4509001  20.0342155  65.4573202  53.5682821  19.2102218
  43.5474730  41.3239717  22.0464158  43.7976360  42.2478437  22.0568204
  43.5148048  41.0951233  21.1175489  42.5666714  54.3162584  38.1780958
  42.1750021  53.5976315  38.6744833  42.8440952  53.9151573  37.3544526
  33.1129837  49.2630386  32.2540784  33.3914423  50.0285959  31.7514706
  32.1581316  49.3259573  32.2770476  26.0398507  37.3448205   1.0095155
  25.4411387  36.9011950   0.4087048  25.4870915  37.9667139   1.4827356
  38.7874031  46.6463327  30.5693698  37.9954910  46.2332582  30.2251625
  39.4940901  46.3012028  30.0237417  35.0097632  68.1671858  31.1150289
  35.8213329  68.6406851  31.2977457  35.2239799  67.6023579  30.3725243
 111.5213966  44.8997116  25.2493453 111.9490051  44.9351311  26.1049867
 111.9880104  44.2104006  24.7767425   5.8655828  22.7768588  31.9809270
   5.9260589  23.2135320  31.1312866   6.3324308  23.3571386  32.5822258
  10.5020273  30.1305485  37.9969287  11.0615158  29.4754004  38.4140444
  10.6231618  30.9199071  38.5246325  21.2069368  55.1576614   3.9571977
  21.2518501  55.0290442   4.9046531  20.3937364  54.7260523   3.6951819
  17.4229705  24.4789267  17.8096306  17.2865725  25.0897884  17.0854223
  17.2494435  24.9968100  18.5957074  44.6136379  14.7561955  15.6362677
  45.1823950  14.1001916  16.0392654  44.2317533  15.2289057  16.3758218
  41.4553547  34.8793840  29.9512100  41.9947910  35.6683588  30.0037289
  42.0836926  34.1576576  29.9744081  58.3801460 105.4043770  73.7451267
  57.8410864 105.8493519  74.3990707  59.2369032 105.8255959  73.8141727
   0.0742510  31.2731767  37.9452872  -0.4168156  31.5206099  38.7287807
   0.8722033  30.8652759  38.2816195   0.0206013  26.3269520  35.1253700
   0.4801432  27.1056175  35.4395938   0.7178005  25.7350731  34.8428392
  53.1309319  59.0475893  22.3601437  53.8433266  58.6059904  22.8224373
  53.3344173  59.9794292  22.4407744  34.4232559  51.7519379  41.2464285
  34.3015361  51.4058590  40.3623199  35.2816248  52.1748304  41.2220287
  44.5153809  57.9181051   2.3930047  45.3816986  57.9169178   1.9859140
  43.9045525  57.8968573   1.6563454  15.8059692  77.8798103  30.0508022
  15.4296613  77.8427505  29.1714549  15.2958667  77.2471046  30.5564785
 105.1011753  32.4174953  33.8880968 105.3605747  33.2633638  34.2534018
 105.8213234  32.1774244  33.3050179  90.7778645  86.8747234  86.6740799
  90.3691387  86.5669632  85.8650970  90.3071308  86.4158916  87.3698616
   7.3260838  47.9774809  19.3151140   6.6571003  48.1894398  19.9660885
   8.0195200  47.5474548  19.8155689  46.9434500  25.8806968  20.7132983
  47.0740557  25.5274415  19.8333061  46.2408161  26.5227461  20.6118011
  11.5680289  37.2679305  34.7400117  11.0155833  36.8053746  35.3701544
  12.4527216  36.9482970  34.9171710  45.2930260  14.9314535  26.0251212
  45.1802349  15.6747162  25.4326081  45.9699774  15.2154112  26.6393948
  24.1403890  58.7887669  43.0987501  24.7399831  59.0556049  42.4019623
  24.0798712  57.8374863  43.0114079  57.0198345  30.8391452  14.6610630
  56.1116934  30.7569218  14.3699396  57.5121117  30.2639055  14.0754056
  46.0966539  39.4253969  48.6848116  45.2540827  39.8393250  48.4978151
  46.4334774  39.1692734  47.8262186  66.4416218  35.4433489  39.5981383
  65.4968691  35.2979732  39.5476818  66.7851162  34.6473026  40.0037909
  20.1407194   7.7678072  20.4486489  19.2075276   7.9807436  20.4553652
  20.3542185   7.6560259  19.5222831 107.0198631  28.1296635   8.0955350
 106.7028046  27.3658586   8.5775155 107.7105331  27.7856636   7.5290710
  22.4148345  53.5359573  54.0361929  21.5482140  53.1385612  54.1215086
  22.5924277  53.5236597  53.0956936  60.8353329  32.7452612  27.2192764
  61.7326593  32.5350380  26.9607258  60.2913427  32.1546769  26.6982055
  67.2950935  47.1710777  28.8996673  66.3516092  47.0134020  28.8649416
  67.4067259  47.8001213  29.6124601  19.3532872  51.8535757  18.3522534
  19.2156363  50.9110594  18.4468162  18.5131991  52.1880007  18.0381751
  29.5563149  36.7044950  40.5540180  30.3506470  37.2361541  40.6050730
  29.3105578  36.5528178  41.4666128  16.0162354  71.6294527  43.9021969
  15.2766430  71.4514875  43.3211946  15.7805443  71.2046242  44.7269440
  34.9197221  68.3044291  21.8513894  35.2487445  67.8293705  21.0883069
  35.1636553  69.2157841  21.6896415  21.4760995  42.0192337  10.9115005
  21.3803363  41.1305857  11.2540913  21.5295911  41.9056273   9.9625725
  52.1031570  42.9287577  12.1893036  52.4931717  42.8828287  13.0622375
  52.8446341  43.0809212  11.6033959  20.0655174  15.7097220  14.1977322
  19.9361670  16.5086913  14.7087586  19.2591524  15.6167018  13.6904311
  48.2272243  43.9765501  23.6837697  47.8504419  43.1195688  23.4841394
  49.0100479  43.7800217  24.1983533   0.8043176  74.6583605  57.0914793
   0.3178102  74.4497156  57.8889799   0.7765562  75.6136036  57.0369768
  20.7050443  72.4101067  56.8049574  20.8143497  71.5696955  56.3599968
  19.7582889  72.5041056  56.9100857  38.6504364  19.1692996   5.1093233
  39.4554210  19.6730006   4.9888441  38.7545133  18.7524033   5.9646583
 108.1887627  54.3020678  30.7797194 108.1108093  54.6616602  29.8960638
 107.9141521  55.0167465  31.3542223  26.7226028  18.0330443  13.1650698
  26.1618638  17.9072607  13.9305651  26.3444901  17.4635661  12.4950266
  11.1426759  25.2186179  53.1054688  10.5310822  24.5763493  53.4655762
  11.1592996  25.0332952  52.1665287 109.1526222  55.2833748  25.3891993
 109.1020203  56.2176132  25.1870346 109.5782566  54.8955679  24.6245599
  10.7646334  39.2142367  39.0233088  10.4208696  38.3495641  38.7988043
  10.7631636  39.2314744  39.9803519  22.1864462  31.7652273  23.3270741
  22.2671866  32.5870633  22.8430319  22.3402619  31.0849977  22.6714373
  15.5703247  36.5585303  30.8699512  15.0773215  36.8860054  31.6222405
  15.3921950  37.1904397  30.1733923 109.4220352  39.3038583  29.6442294
 108.5017490  39.3819118  29.3928123 109.4296646  39.4843984  30.5842185
  19.7373295  25.6865597  32.2575402  19.9531722  25.1033521  32.9852152
  19.6573281  25.1058745  31.5008116 102.8956509  45.9817219  26.1425066
 101.9568443  45.8066130  26.2073112 103.1533623  46.2371349  27.0282745
  20.2483559   0.5219807  76.0863686  20.4376769  -0.3156980  75.6636572
  20.3496504   1.1702484  75.3894281   5.2715880  52.1548843  34.4467950
   6.1989099  51.9536018  34.5724583   4.8129663  51.3730669  34.7544694
  51.2224722  45.7851553  89.0677834  51.2098598  44.8934412  88.7200451
  52.1521425  46.0030508  89.1345978  12.7119696  38.6795092  61.6030645
  11.8065155  38.9854908  61.5505266  12.9671264  38.5290170  60.6928587
  55.6215239  43.4267759  36.2398791  55.8123922  44.3239450  35.9662151
  55.1395035  43.0493402  35.5040646  36.7022133  28.6929560  30.6918502
  37.6316071  28.7188935  30.4642868  36.3566518  27.9461527  30.2028680
 108.4709644  47.4620962  50.9954548 108.4674931  47.3416376  51.9450378
 108.8406944  48.3354902  50.8661652  63.7223577  29.6494365  17.0778298
  64.6117258  29.7431278  16.7365420  63.3227539  28.9786625  16.5241063
  42.6432180  18.4725821  13.5223794  42.3030806  19.0511358  12.8398728
  42.4910164  18.9493680  14.3383098  50.2608871  52.9592848  30.8824706
  49.3469763  53.2437944  30.8751607  50.3238964  52.3372602  30.1576591
  46.8985176  79.5601702  79.9484777  47.7790070  79.2151165  79.8004436
  46.8358803  80.3155518  79.3639183  24.3623662  37.0308447   4.7936758
  23.8277221  36.6407323   5.4851949  25.1690125  36.5155292   4.7950900
  39.9722481  44.6149588  28.7655568  40.5728292  44.4334173  28.0426645
  40.5410671  44.7262526  29.5273256  11.0112250  72.3920250  57.8722239
  11.6947722  71.9457626  58.3720684  10.1986742  72.1708679  58.3272839
  24.2404461  64.5798349  50.3901339  25.0225329  64.6940041  49.8501873
  24.0450954  63.6444664  50.3340006   4.0936261  41.4281464  35.9613013
   4.1205242  40.4886913  35.7798076   4.9087328  41.7670250  35.5911756
  52.6115179  93.9923286  50.1853991  52.0088720  94.3841839  49.5533419
  52.5042057  94.5193768  50.9771919  58.2401037  98.2331562  78.7559843
  57.2991180  98.1898022  78.9259863  58.3246183  98.0321312  77.8239536
  28.9087844  41.2352419  26.9397759  29.3524265  41.7885542  27.5826287
  28.3319187  41.8341875  26.4657283  97.3609829  36.7702150  13.4080505
  97.6472569  36.3224030  14.2041314  96.6420650  36.2324595  13.0760908
  44.0373135  58.8701773  22.1003175  43.2200193  58.6074257  22.5236750
  44.6990156  58.7917137  22.7875042  11.0918057  71.2250900   4.6363944
  11.3106155  72.1390390   4.4545963  11.7690837  70.7221317   4.1841131
  53.6331272  61.6919231  22.6394773  53.1247139  62.4985886  22.7233791
  54.3090439  61.7636204  23.3134437 105.4960251   3.0362940  14.6537602
 105.8650780   3.8764513  14.9260926 104.7618389   2.8923789  15.2508366
  66.4835548  36.3883710  28.7521362  65.5716801  36.3149238  28.4704995
  66.5151358  35.9196854  29.5861435   3.0088609  64.0651655  50.3841639
   3.4798720  64.1841364  51.2089252   3.4400281  64.6632051  49.7736931
  33.3139515  53.4881830  11.8356013  32.8549910  52.9113674  12.4462330
  32.6897311  53.6286497  11.1236691  23.6577678  57.6534986  15.0922012
  23.8377047  56.8731213  15.6164789  22.8942418  57.4173307  14.5654321
   8.7922162  58.2341242  50.5626774   8.1712818  58.8116121  50.1186323
   8.9742833  58.6721659  51.3940668  29.6471930  62.5642920  15.9000814
  29.4175243  62.7760124  14.9952841  30.2376461  61.8143463  15.8281028
  46.5256453  40.3086138  12.9867303  46.0356808  41.1243391  13.0904710
  47.4355745  40.5872202  12.8836060  66.7241287  50.6678438  87.8314686
  67.0893621  49.9217844  88.3071041  65.8993721  50.8567286  88.2790470
  45.8621979   1.3102084  54.4140005  45.6100655   1.8459186  53.6618853
  46.7017603   1.6733114  54.6960068 108.9206123  15.7610095  89.7019958
 109.0730762  14.9359155  90.1626587 108.8073730  15.5066371  88.7861919
  55.5094576  19.6665096  19.5770407  55.9330130  19.9244559  18.7583256
  54.6253490  19.4068658  19.3178725  50.0279903  39.9653888  57.8516722
  49.0712929  39.9932575  57.8654194  50.2915335  40.8697987  57.6819229
   5.0553519  42.7476501  42.5741673   5.4536319  42.5301170  43.4169483
   5.5082744  43.5427761  42.2933292  48.2845259  49.0140438  28.5283637
  47.9179382  49.4813871  29.2789865  48.6560011  48.2148647  28.9019299
   3.4671223  65.4833603  38.9775443   2.9153198  64.8902464  38.4676814
   4.3190107  65.4515696  38.5422206  38.4279180  45.5767059  51.6712236
  39.3689728  45.5051994  51.8310070  38.0319977  44.9697065  52.2965431
  46.3155127  68.4353685  12.4564075  45.3590822  68.4136105  12.4879813
  46.5908051  67.7428770  13.0571604  94.8190880  94.0952206  74.3840122
  94.4211006  93.7251186  75.1719618  95.3845406  94.7963238  74.7079706
  67.4858904  14.6531117  56.1147118  68.3766699  14.3348062  56.2610769
  67.5906086  15.3892338  55.5118942  21.4761400  33.9392328  42.4992895
  21.0730934  34.7856188  42.3058558  21.4407516  33.8695431  43.4532928
  29.9274945  86.5699768  91.1282444  30.8709764  86.5980530  91.2872505
  29.7246647  85.6374168  91.0545731  14.4066405  65.8912373  39.5685148
  13.9788747  66.5869188  39.0692401  14.5286334  65.1829720  38.9362931
  63.0683947  93.3488941  67.7610922  63.2239723  94.0618896  68.3805037
  63.7293386  93.4746170  67.0802307  14.5857835  38.8476992  32.2162127
  13.9132953  39.2598915  31.6739130  14.4670022  39.2373300  33.0824184
  37.0767474  33.4318852  12.7306390  36.2313771  33.1557488  13.0846572
  37.6394296  32.6636052  12.8274262  29.2137861  29.2676830  22.1361780
  28.9388728  29.7894764  21.3822651  30.1611996  29.1783261  22.0329547
  47.3478413  91.1453056  80.1064587  47.0434618  90.4288101  79.5494938
  48.2990456  91.1443520  79.9994850  46.4384079  31.3434720  18.1449866
  45.6758070  31.8369699  18.4468687  47.0744896  31.4273119  18.8553405
 104.5791531  31.8970227  58.9295387 105.0164318  32.4619484  58.2924509
 105.1148224  31.9676161  59.7196627  22.9247141  21.4666438  64.8736906
  23.2762837  21.1052585  65.6873417  23.2324934  22.3729277  64.8614645
  42.5037909  67.2232151  87.2220612  42.3764324  67.1202898  86.2789726
  42.1710396  68.0998659  87.4144077 103.9950166 105.9551968  15.1514244
 103.4669576 106.3275761  14.4452238 104.7792588 105.6230647  14.7145176
  55.6167459  97.9108620  87.5210571  56.1004972  98.0134106  86.7014885
  55.2663088  98.7828159  87.7030563  19.3152845  74.4501400  33.7458253
  18.8926172  74.2746305  32.9051232  18.7584984  75.1088572  34.1609359
  15.2039301 105.0447178  54.5862818  15.3765571 105.1838684  55.5174446
  15.9720075 104.5699787  54.2686176  55.8885908  70.0820446  12.5546658
  55.0227594  70.2465820  12.1811807  56.2976027  69.4645786  11.9483006
 100.9097672  57.1604633  20.8761406 100.7655048  57.1858168  19.9302137
 100.4087734  56.4014006  21.1745667  93.4451580 103.3475685  35.9901619
  93.4671783 103.8241863  35.1603532  93.0103207 103.9453602  36.5982628
   0.1410615  60.3919411  54.3786240   1.0813989  60.2457619  54.2755222
  -0.1311994  59.7478724  55.0322914   9.5576197 105.1278877  62.0344925
  10.2868402 105.3955173  62.5938177   9.7290587 105.5565453  61.1959839
  11.8584204  37.1046734  41.5085459  12.6167774  37.4554706  41.0415697
  11.3499820  37.8775215  41.7543745  19.3432176  56.1527109  29.2431879
  19.9365473  56.0309696  28.5019922  19.9211609  56.2326050  30.0020218
  67.4250841  59.4894028   3.8922653  67.6888561  58.9528608   4.6397799
  66.7549753  60.0760174   4.2430785  10.6669545  24.5790982  40.2543402
  10.8686757  24.4029379  41.1733150  11.3263714  25.2174520  39.9824858
  34.8326993  37.4436879  60.1089382  34.9315643  36.5034580  59.9591875
  34.7304726  37.8162599  59.2331696  67.5061655 103.1720734  41.2410212
  66.8216181 103.3121300  41.8952465  68.2939005 103.5474300  41.6344881
  27.0374894  65.7714224  54.6212196  27.3125505  64.9313211  54.9883747
  26.4451218  65.5380011  53.9064837   9.6030831  33.5134816  65.2274466
   8.9140278  34.1070795  64.9289894  10.1663160  33.3964086  64.4623995
  55.2828026  24.2030454  26.6452718  55.0709867  24.7885752  27.3722649
  55.0735044  24.7098947  25.8607149 107.0138836  90.0176811  17.1781504
 106.9487381  90.6619072  16.4731967 106.1562252  89.5929623  17.1944904
   9.0600574  46.0793447  74.9698400   9.6301550  46.3514328  74.2506838
   9.5350575  45.3653336  75.3950357   8.6871964  54.8277140  45.5037785
   7.8808588  55.2912712  45.2775764   8.3964217  53.9526320  45.7605124
  24.7609448  68.8779831  74.5958090  24.8411679  69.8077583  74.8086929
  25.2301860  68.4297991  75.2994967  19.4302404   9.0892816  55.1309681
  19.6077824   9.8116767  54.5285892  19.1362011   8.3739287  54.5670128
  67.4379349  24.4265628  47.3695517  67.0840931  25.2049875  47.7997684
  66.6677237  23.9659095  47.0366764  40.6366777  31.8538022  38.5497999
  39.7527146  31.6174054  38.8307953  40.7412386  31.4237666  37.7010560
  57.0936203  43.5363007  32.3095989  56.9863176  42.6524591  31.9581127
  57.9167938  43.5019779  32.7968740   5.6552166  30.9061027  19.3159747
   6.5842271  31.1338782  19.2800665   5.4679066  30.8107686  20.2498150
  44.2575741  54.1151428  29.2518449  43.9707756  54.8516226  28.7118649
  43.4654760  53.5952806  29.3880749   5.1000881  19.1343188  25.5712104
   4.4750005  18.6875689  26.1420965   4.5556441  19.5796585  24.9219918
  99.4127472  53.0197886   0.2604660  99.7870453  53.8697388   0.4922375
  99.3475683  53.0391186  -0.6943146 106.6035175  69.5768881  52.2356462
 105.7890129  69.0742683  52.2497892 106.9390011  69.5145369  53.1299591
  31.0988426  48.7559223  52.6551962  31.9284368  49.1051722  52.9808187
  30.7219863  48.2955456  53.4050369  58.8667202  20.4741168  25.7098889
  58.5606194  21.0873055  25.0416589  59.0838146  21.0267782  26.4606667
  80.3154182  40.0718927   5.8534640  79.9683380  40.3728437   5.0137049
  80.0567341  40.7507896   6.4766902  57.8653002  80.2437878  86.0082722
  58.0133724  80.6723213  86.8512821  56.9885063  80.5253887  85.7471752
  35.7880473  56.8564224  57.6770115  36.7383456  56.8895054  57.7868891
  35.6108665  55.9597063  57.3928642  98.2764435  30.5163383  86.5184498
  97.3574162  30.3692770  86.7420578  98.4318161  31.4354038  86.7361927
  37.6209927  43.0704212   1.0696372  37.0696902  43.2114553   0.2999560
  38.3322930  42.5120926   0.7557109  24.6339774 105.5490208  31.6947937
  25.1208496 106.1482620  31.1290193  23.7226939 105.6458378  31.4183497
  38.2213306  42.8287268  31.6474056  38.1310797  43.4007549  30.8852577
  37.5888062  42.1264315  31.4960074  17.1029246  35.1957607  41.5786934
  16.2100697  35.3311110  41.8960619  16.9925082  34.7921944  40.7177782
  23.0043793  50.1890469  44.1840696  23.9134431  49.9883556  44.4066811
  22.5274158  49.3810511  44.3735027  17.5653124  49.6270037  38.3334184
  16.7515659  49.9545860  38.7164807  18.2445037  50.2019644  38.6860514
 102.0849514  23.3864737  12.3551369 102.1747875  24.2780161  12.0185137
 101.9727898  23.4971094  13.2992816 101.2216759  13.4278822  67.2794628
 101.6186237  12.6603270  67.6912022 101.9300938  13.8184226  66.7677402
  26.1041617  27.4110150  35.0329733  26.8970180  26.9042063  34.8575950
  26.1069155  27.5394464  35.9815145   6.3099593  23.0345774  27.1589589
   6.8921220  22.4794984  27.6778102   6.5120482  22.8104544  26.2505746
  54.0255690  46.2168074  31.8512750  54.0489960  45.4842806  32.4669719
  53.2341433  46.7014980  32.0856881  15.4959714  93.8374901  90.3271294
  14.6812665  94.3286991  90.4329300  15.5658424  93.6897945  89.3839741
  35.7151747  70.9334040  21.4137530  35.7811356  71.1242437  20.4780912
  36.3905144  71.4784575  21.8175602  58.5171700  53.0268812  13.5770798
  57.6423979  52.6901293  13.3831656  58.4783792  53.2768536  14.5002484
  32.2417498  42.1948814  11.6457152  31.6941023  42.8526688  11.2171900
  33.0008483  42.6845694  11.9622707  74.2445946 101.4641762  67.4928761
  75.0018501 100.8792973  67.4661684  74.2663050 101.8441582  68.3711481
  97.1879005  37.8750682  56.4509821  98.0754566  38.1605172  56.2341881
  96.8505478  37.5022364  55.6364775 108.3625793  54.2915869  27.8255582
 108.9478302  53.5372782  27.8943968 108.5638714  54.6737432  26.9713521
 103.3553696  99.6159363  28.4503770 102.6525021  99.4571686  27.8202987
 104.1560745  99.5951366  27.9262757  42.2925138  35.0366402   8.1144166
  42.0430660  35.8389902   8.5729373  42.1736240  34.3430996   8.7633395
   8.6643052 103.5858727  25.2321959   9.4117600 103.5402298  25.8283997
   8.3504736 102.6835823  25.1720357  69.6066761  24.4033480  54.1401958
  69.1494179  23.7447119  54.6630144  69.3621397  25.2381921  54.5395279
  38.2781148  39.7358346  24.3934345  37.8297114  40.5651426  24.5590115
  39.1627789  39.8698235  24.7335029  46.1805105  90.0683117  20.1519990
  46.2357092  89.3247223  20.7522130  46.9406176  90.6081486  20.3689146
  66.2407494  72.0819235  82.4374104  65.6670094  72.7184772  82.0109653
  66.8916368  72.6145840  82.8944016  39.9699593  48.5119963  45.6053591
  40.7634592  48.1323433  45.2279282  39.2530990  48.0615091  45.1588154
  42.8245783   9.7521055  30.8528614  42.7495003   9.4682807  31.7639256
  42.2165346   9.1877830  30.3753090  27.9120135  62.5926971  27.4792743
  28.1720901  63.5112906  27.5484276  27.5363111  62.3850822  28.3348298
  13.2140136  83.7474060  46.9557238  13.2159162  84.3424988  46.2059927
  14.1400456  83.6138821  47.1578789  33.8361406  49.2718267  46.4232445
  33.3181119  49.4991159  47.1953964  34.1676140  48.3929396  46.6074276
  53.9257860  69.6549654  14.5539784  54.6885347  69.6198606  13.9767337
  53.1810093  69.4844103  13.9773917  31.9823003  80.1386738  36.4771962
  31.7392898  80.5656147  35.6556702  31.4110279  80.5384350  37.1329951
  31.3898730  18.1914663  55.3999376  30.6669450  17.7345061  55.8298111
  31.2932253  17.9739022  54.4728136  12.2038889  79.2021275  51.7505169
  12.6502919  80.0424480  51.8545675  12.5215662  78.8642216  50.9131765
  91.6733646  61.5562105  46.3148594  91.9939327  60.7051373  46.6134262
  91.0510826  61.3468504  45.6183195  86.6687202  86.7776585  86.7063808
  86.4454460  85.8739185  86.9291782  85.8632469  87.1391678  86.3365841
  37.1104026  26.9472957   3.7330160  36.7933321  26.5307951   4.5344061
  36.4390039  26.7514181   3.0794957  32.8496504  85.9005928  13.1954789
  32.3927498  86.3992786  13.8728166  33.2505512  86.5666771  12.6370418
  26.4638591  61.1300802  19.5890319  27.1508265  60.8637857  18.9779723
  26.2882352  60.3456116  20.1086450  86.4840126   5.6288993  90.5177116
  86.0710335   5.8637792  91.3486862  85.8606625   5.0346029  90.1000118
  21.0870838  45.1796389  77.8659534  20.6222606  45.9263897  78.2434940
  21.0476637  44.5052385  78.5440826  25.2618623  52.6583481  42.2126675
  25.0239015  51.9902706  41.5698004  25.9133816  52.2329760  42.7701759
   0.1828189  67.7644491  56.5583467   0.4574449  67.7726555  55.6414223
   0.9906361  67.9071331  57.0516062  39.8420978  87.9800224   6.6815054
  40.5750132  88.5880470   6.5847081  39.2655587  88.1805420   5.9441966
  20.1029301  18.1593251  15.3972197  19.1772497  18.3982921  15.4445732
  20.5699444  18.9883184  15.5016232  12.9171300  68.2255316  41.1956787
  12.7741051  69.1714382  41.2278652  13.4599555  68.0916739  40.4187298
  37.3164511   0.3945485  28.2962680  36.5125728   0.7931598  28.6296177
  37.9918766   0.6593288  28.9207053  56.8304586  38.2477808  24.9308181
  57.6222372  37.9343677  24.4936728  56.5703535  39.0208578  24.4298911
  78.0287170  17.7019215   6.8042719  77.5140476  17.5862741   6.0055405
  78.3198214  18.6132026   6.7717820  15.9534776  13.8295066  56.3722420
  16.1042404  13.1119323  56.9875383  16.0405779  14.6217871  56.9022751
  56.2359428  34.1059637  26.8137550  57.0630169  33.8000035  27.1860003
  55.5902481  33.9476919  27.5024199  32.1939397  47.7801657  25.5923963
  32.1667767  47.5253820  24.6701264  33.0718994  48.1411123  25.7154107
  32.3337388  77.1374369  10.5513585  32.7355814  77.5361490  11.3232303
  32.2596526  76.2090731  10.7724524  51.1420774  52.6435757  33.5244823
  50.7925463  52.8879166  32.6675344  50.8525944  53.3435631  34.1096735
 104.0340710  28.3290601  90.8650589 103.2382584  28.8563132  90.9351540
 103.9255333  27.8387523  90.0501633  49.5332241  34.8010421  10.2963603
  49.2923021  34.5187736  11.1786926  48.7150764  35.1195574   9.9150246
  37.5802588  60.4484558  39.4376016  37.1897531  59.5811796  39.5451450
  38.3001113  60.4668760  40.0682402  59.3581581  63.2195616  24.7691345
  58.9894199  62.6612949  24.0845895  58.9202881  62.9355526  25.5715299
  30.3357387  82.9105759   9.7398877  30.4971957  82.0128250   9.4497168
  30.4673910  83.4431553   8.9555013  41.3015509  51.7701769  47.3711777
  41.6089439  52.6542711  47.5714636  41.6739845  51.5762329  46.5110016
  30.4146266  82.0897770  29.3693781  29.8585510  82.2328281  28.6035132
  30.2289701  81.1891937  29.6353078  36.0465884  54.9322653  26.4979124
  35.9272242  55.8694506  26.3440776  36.4012384  54.8784828  27.3853612
  43.0073833  51.0416651  32.1312904  43.5738754  51.4362717  31.4682627
  42.1239662  51.3165855  31.8858933  33.5365462  53.0794811  15.6379890
  33.5481787  52.9039192  16.5788782  34.4598579  53.1541777  15.3968477
  22.5750873  37.9645746   0.6629070  23.0081699  37.2078340   0.2679047
  21.7689511  38.0699079   0.1576504  46.8412638  28.3042979  34.3913746
  46.5398216  28.0494952  33.5193419  46.0429001  28.5514116  34.8580503
  18.7506914  35.5829859  57.8220129  17.8053880  35.4334497  57.8385115
  18.8435149  36.5014124  57.5688076  38.6778736  70.8783150  53.9722300
  39.2458415  70.1108074  53.9046001  37.9410911  70.5845833  54.5080519
  23.1103802  41.5619087  17.7446163  22.2400284  41.2176847  17.9451931
  22.9460001  42.3061466  17.1655536  11.0876334  31.1084723  47.7531242
  10.8701026  31.8121958  47.1418285  11.5224314  31.5505362  48.4823465
  24.8217750  37.9013801  26.9311571  24.8688006  37.6946545  27.8645849
  24.9916434  37.0678067  26.4923763  56.8702507 102.4223232  35.9272814
  56.5445042 101.6648293  36.4134121  56.8147230 103.1479168  36.5491009
   7.2492933  70.1204538  32.1524453   6.7646754  69.5312357  31.5743470
   6.7651880  70.0978422  32.9778934  22.6804709  36.4886808  40.5140829
  22.4309802  37.2845364  40.9837627  23.6193538  36.5880060  40.3563881
  21.3649130  30.4498982  70.8499622  21.1560106  30.4125118  71.7833424
  21.7572451  29.5981550  70.6580305  71.3357115  55.4000425  12.9467106
  72.1762896  55.8002710  13.1691527  70.9420443  56.0039902  12.3170257
  29.6154141  64.9895573  17.2911489  30.5114675  64.8576164  17.6008475
  29.5052743  64.3429089  16.5940511  30.1703691  70.5374956  33.0323958
  30.2344179  69.5824480  33.0284953  31.0656977  70.8369446  33.1903410
  41.4237213  33.1300449  45.1676178  41.8681479  33.9552879  44.9734688
  41.9823885  32.7043700  45.8179426  25.6810713  62.9824066  22.0774698
  24.9417377  62.5319242  21.6691995  25.3720403  63.2019329  22.9564118
  33.0989075  60.2352333  58.1544638  33.6763978  59.5595884  57.7991629
  32.2159433  59.8921204  58.0170584  81.6910744  66.7105341  25.3289795
  81.7781258  66.0586977  26.0245061  81.6654968  67.5496006  25.7889199
  31.5063167  58.6810017  60.3200865  30.6317115  59.0642262  60.2534723
  31.3610291  57.8189516  60.7099485  46.3641024  42.9161882  36.4579082
  47.1020031  43.4550476  36.7431569  46.6878510  42.0172071  36.5149593
 109.2221165  12.3124826  85.1260757 108.6885738  11.8070793  84.5127869
 109.5836639  11.6585171  85.7242775  54.7323608  49.6369123  32.8507137
  55.3712034  49.4859791  32.1540570  55.2389288  49.5656967  33.6597562
  47.4062014  70.0771666  31.7578888  47.8911257  69.5692682  31.1074162
  46.5742874  70.2813435  31.3307261  13.4047377  13.7466180  16.2599862
  12.7947748  13.1426716  16.6835737  12.8432536  14.3904018  15.8281183
  24.1833568  50.2325630  13.0569124  23.6287284  49.4790077  13.2588422
  24.8088121  50.2703619  13.7805200  59.1671467  51.6061449  18.5523331
  58.4083033  51.5546703  17.9711771  59.3595552  52.5418663  18.6127031
 109.6724987  19.6064234  84.4103909 108.8835239  19.8935282  83.9507008
 109.4836235  18.7047017  84.6701145  38.5718942  75.7629633  35.7402301
  38.5627151  75.1688433  36.4906764  38.9036608  76.5887976  36.0925913
  40.2188253  48.3335686  17.8228223  40.7195377  48.6473322  18.5758650
  39.3234897  48.2465219  18.1499708  14.5162463  68.9658403   1.3717671
  14.5319569  68.9739275   0.4147301  13.7796462  68.3965588   1.5944178
  56.5287399  23.0075836  11.4008152  55.9181786  22.4483848  11.8811727
  55.9875536  23.4423232  10.7417607 100.9553814  16.9694555  86.7935562
 100.4046535  16.8317020  86.0228729 100.3414822  17.2142684  87.4859619
  74.9497080  95.1046371  65.7441568  74.9375629  95.0285625  64.7900629
  75.2075672  94.2352009  66.0504818  46.8757296  86.3748360  10.9503233
  46.4786434  85.8756447  10.2366292  47.7978086  86.1182213  10.9380162
  37.5943136  90.6717968  16.7400348  37.7594686  90.6552887  17.6827347
  37.8220773  91.5621853  16.4725244  50.7364798  71.9318533  42.7296209
  51.1404657  71.2213421  43.2278204  50.8318710  71.6672230  41.8146896
  64.8220348  62.1625423  21.9613218  65.4604292  61.9404984  22.6390982
  64.6203566  63.0854845  22.1153903  29.6031308  51.3693619  26.8669510
  29.1991043  51.1473560  27.7058244  30.5006123  51.0446644  26.9399810
  67.3886776  49.3976116  30.7373905  66.8570328  50.1353931  30.4386282
  67.8480053  49.7301340  31.5085435  24.0618157  54.2092705  44.2164278
  24.5243120  53.7403107  43.5218716  23.3261824  53.6396074  44.4412899
  33.8502765  31.6683459  38.4643698  33.9339375  30.7176900  38.3903170
  32.9294610  31.8435812  38.2704043  40.3750563  44.6362925  38.7819004
  40.0384998  44.2809582  37.9592824  41.3265324  44.5731688  38.6985898
  23.2137966  40.1784658  34.2184925  22.3864937  40.0260687  33.7617898
  23.3683491  39.3716145  34.7097540  39.9447727  42.4403715  16.3985586
  40.6463766  42.4325228  17.0496511  39.7796106  43.3690310  16.2356102
  34.5582843  41.8480396  25.5837703  34.4382000  40.9245348  25.8050346
  35.4947710  41.9314814  25.4041481  51.3489723  20.8047605  42.4963093
  51.1217690  21.2459326  43.3148289  50.6984901  21.1170292  41.8673515
  34.4219995  50.4164934  22.5022745  33.7743163  51.1067533  22.3598766
  33.9254713  49.6020269  22.4226427  32.7983594  66.3576126  58.0868340
  32.3045063  66.4407253  58.9025736  32.9783106  67.2599030  57.8227949
  50.8603954  49.0039778  19.2333353  50.1161242  48.6277008  18.7635446
  50.8871508  48.5256910  20.0620413  67.6222658  37.8680205  38.5426664
  67.9312468  37.5252795  37.7040410  67.3310471  37.0942140  39.0249968
  29.5470238  62.6927137   3.9834034  28.6930704  63.1014919   4.1244498
  30.0267220  63.3204508   3.4429690  46.9240093  69.6072054  26.3189697
  46.7680359  69.1424036  25.4968619  46.1637640  70.1803064  26.4180541
  38.1991482  33.5860181  54.5987558  38.9164925  33.4305692  55.2131510
  38.0863571  34.5365477  54.5977926  24.0989304  60.8501816  11.1146188
  24.6638727  60.7720566  10.3458738  24.5991254  61.3914204  11.7254329
  51.1277151  69.4091654  30.5636048  50.6003618  68.9887285  29.8843694
  52.0074034  69.4559526  30.1891851  73.8263941  87.9234028  81.7688179
  74.1279411  88.5937023  82.3820114  74.3464756  88.0701637  80.9787464
  43.4832382  40.3945160  24.7078586  43.5246181  40.6051445  23.7750387
  44.2479229  39.8398662  24.8623133  36.7921185  73.4772825   1.0124481
  36.2822080  72.6679468   1.0470284  37.0618653  73.6293030   1.9181848
  63.5369444  93.5014725  26.3153243  64.1962337  92.8480053  26.0817552
  63.3834267  93.9871025  25.5048800  36.4854312  99.2229557  16.4077818
  36.6735864  99.0494156  17.3301232  35.8288407  99.9192619  16.4241683
  52.0212412  60.3773928  15.5466163  52.7530956  60.3215027  14.9322045
  52.1686935  61.1956120  16.0209632  41.6204834  79.8418570  29.7652268
  42.5128317  80.1849365  29.8125696  41.0702848  80.5622482  30.0727272
  41.9720459  51.3126373  26.6703844  41.1684656  50.8930349  26.9776630
  41.6699839  52.0666456  26.1639643  46.0947990  55.1517677  31.5153480
  45.2834845  55.5099487  31.1551929  46.6918993  55.8990908  31.5500665
   3.9860949  54.8028278  37.2569633   3.5902748  54.7428131  36.3875055
   4.8723516  54.4603491  37.1408176  45.8816862  96.6397762  60.0414896
  46.0714197  97.5463104  60.2832317  46.6993904  96.3166428  59.6631145
  62.2204208   2.9388955  17.3418236  61.6238165   2.5481173  17.9802477
  62.2802925   2.2894889  16.6411686  52.8506517  71.2766838  63.2187223
  52.0601892  71.6501474  63.6084986  53.4542322  72.0160484  63.1461620
  26.0960150  47.0885086  11.3624012  26.3657904  46.9395638  10.4561615
  26.6343212  47.8240299  11.6547418  67.4148226  40.7722855  23.5942531
  68.1542158  40.4931688  23.0542278  67.2926235  41.6957903  23.3741546
  43.7642670  80.8979416   2.3342068  43.7054777  81.5729046   1.6580418
  42.8539848  80.6862926   2.5411409  75.9883070 103.6277771  87.4242401
  76.0421371 103.1637955  86.5887451  76.3602829 103.0178642  88.0613136
  37.5099659  67.6665640  37.3306465  37.1381927  68.4765530  36.9814539
  38.3155060  67.9419184  37.7682757  47.6264286  95.6435776  87.8233910
  47.2788620  95.5811977  86.9336987  48.3933735  95.0708485  87.8216171
  59.6266317  63.6392260  11.9308424  59.4388008  63.2788754  11.0641825
  60.3847837  63.1420231  12.2377968  71.9697046  18.7448418  14.6573889
  71.0798407  19.0552664  14.4900358  72.5335407  19.4425130  14.3233526
  56.5910578  54.6583652  18.9139807  56.3676786  54.7085142  17.9845619
  57.5342751  54.8188257  18.9426184  47.1232462  87.4263954  55.0109529
  47.2000551  86.5253258  54.6972656  46.6507053  87.8828812  54.3148470
  39.9821568  63.8079977  13.1665385  39.9498153  64.7452068  12.9746366
  40.9010077  63.6374760  13.3735859   5.5678445  49.5721388  29.1168213
   6.1949074  49.9934673  28.5290265   4.9228621  49.1731834  28.5328150
  33.5787034  56.7900038  27.8222013  34.3310571  57.3448372  27.6164079
  32.9325557  57.3906994  28.1935358   2.6530874  54.5414400  15.5222642
   3.1684551  53.7900591  15.8156049   2.3123817  54.9278307  16.3290203
  70.3467274  97.4797058  91.1425781  69.3912125  97.4647141  91.1973572
  70.5716658  96.6825485  90.6628132  35.6086636  48.3039856  42.8746319
  36.5364051  48.3760548  42.6502800  35.3660226  49.1799974  43.1745625
  28.2713223  62.7064896  21.3187289  27.3794508  62.5690842  21.6379762
  28.2446194  62.4241877  20.4044938  71.6072035  79.5130157  10.6089115
  71.8466902  79.6452236   9.6916336  71.6864204  78.5686302  10.7434177
  44.4964409  86.9699669  59.7683859  45.1846886  87.2095108  59.1477680
  44.6163130  87.5717831  60.5030107  18.7947679  51.2895346  40.5059195
  18.3320069  52.1272707  40.5228043  19.7199678  51.5255880  40.5731297
  57.7530527  64.3881750  14.4088173  57.9865646  65.2587938  14.7308934
  58.2714510  64.2808199  13.6113429  41.5199184  80.8484459  55.2236366
  41.4517784  80.6680298  54.2860651  41.9164324  81.7183113  55.2719593
   2.4164099  37.0612550  42.2029400   2.4100758  37.9530478  42.5506401
   1.5730578  36.9711828  41.7592335  52.5715256  62.5376797  27.4468112
  52.3768425  61.6109324  27.5863433  51.7264462  62.9293871  27.2262669
  20.5871153  38.6276889  25.7473969  20.7453179  39.2167449  26.4851046
  21.4041281  38.1381106  25.6523371  58.1456423  62.1867800  22.3566222
  57.4855471  62.2222137  21.6643429  58.9344931  62.5501108  21.9542074
  14.2338896  56.3594007  23.3010602  14.2477620  57.0175791  22.6061893
  15.1418281  56.0640907  23.3694005  83.8541317  82.7584171  16.3142812
  84.2433739  82.2893906  15.5762208  83.5656452  82.0681667  16.9114113
  56.1441898  88.4197140  31.4090872  56.9788408  88.8681984  31.2732792
  56.3882971  87.5199890  31.6262269  51.1277151  36.2238216  35.1519966
  51.7692375  36.3219953  35.8555913  50.9562922  37.1183610  34.8576403
  46.9044352  73.6137438   5.4626226  46.9766665  72.6888418   5.6983614
  46.7767906  74.0644169   6.2973881  44.0272903  63.3961916  34.7604227
  44.8074865  63.0735826  34.3093657  43.3560944  62.7385616  34.5780778
  36.6084504  39.0637827  15.9824085  36.8026233  38.3147669  16.5458834
  37.3383069  39.0937185  15.3638268  23.5870504  35.8327651  10.2274787
  23.8595724  35.9462523   9.3169379  24.1847897  36.3886189  10.7274461
  58.9900351  94.2780399  35.8774114  58.5081482  95.0182724  36.2462807
  59.3176794  93.8015270  36.6401815  54.9406815  45.9201145  11.2891078
  54.3071365  46.6331196  11.3695872  54.8769093  45.4481840  12.1194363
  44.5600367  23.6045003  26.6318297  45.2105713  22.9840827  26.9606495
  44.9280405  23.9230561  25.8076143  53.3607149  37.0389342  57.0754862
  53.5916233  37.7184081  56.4420557  54.1794920  36.5680647  57.2307968
  49.0177441  61.7615795  14.2157030  49.7669411  62.3088741  13.9803338
  48.3777571  61.9203711  13.5218477  41.8961000  64.7478199  21.0286403
  41.4494371  64.3805361  20.2658629  41.8394232  65.6954479  20.9061027
  25.8876657  47.6689386  35.6513906  26.0954905  47.3352242  34.7786522
  25.8789253  48.6205149  35.5481410  16.4683378  54.7119093   3.8275638
  15.9556901  54.9656868   3.0600858  15.9707272  55.0520611   4.5711446
  92.7695942   0.1888470  77.3457241  92.7930355   0.8870300  76.6913366
  92.3795033   0.5977033  78.1183147  25.0546575  61.7119694  36.8141150
  25.2845168  60.9465456  37.3409176  25.8123922  62.2917938  36.8907619
  33.7499619  92.1372128  68.8660526  33.5230660  93.0385685  68.6373138
  34.4261932  92.2236061  69.5379734  44.3606424  75.9994221  25.4989409
  43.6348629  76.0110092  26.1229134  44.0223312  76.4574003  24.7295022
  55.5145359  89.8742294   8.5912937  56.3341188  89.8281193   8.0989629
  55.3246498  90.8103657   8.6531550  20.9947014  86.6002846  25.0445819
  20.7712436  87.3112869  25.6452203  21.8828058  86.3455677  25.2948165
  45.1930141  60.4226065  28.4350443  45.0145388  61.3158226  28.7292385
  46.0543728  60.2181578  28.7990355  25.8155966  55.2013826  62.0704460
  26.2165117  55.0796556  62.9310751  25.4515886  54.3434048  61.8522739
  40.4156733  41.2485647  56.0645723  41.1753273  41.2080908  56.6455364
  40.5637598  40.5495739  55.4276180  31.9243360  86.9602108  28.8562846
  32.0852423  86.8346882  27.9210925  31.1085200  86.4885998  29.0243697
  19.6217585  54.0114546  22.3500180  19.9023247  53.5307598  23.1287646
  20.2953482  53.8229465  21.6965842  32.1185637  45.4494095  56.0772228
  32.8760576  45.4710579  55.4924488  32.2420549  44.6570730  56.5998983
  46.4306736  71.0117006  11.7753947  46.6889286  70.1466227  12.0934665
  46.2535477  70.8813143  10.8438063  59.4136286  34.3618989   5.1590115
  59.8027468  34.4356418   4.2875862  59.0844584  35.2403116   5.3494495
  13.3735633  21.6418242   8.9983624  12.5418591  21.7779160   9.4522119
  13.6411047  20.7575154   9.2486686  86.9125080  50.9790611  77.3513889
  87.7834225  51.2373304  77.0496702  87.0117569  50.0641060  77.6145267
  39.2173767  26.4160585  18.1210577  39.2198801  27.0359635  18.8504016
  39.3755007  26.9563842  17.3469269  31.5785789  55.7592583  35.7632875
  32.3787475  55.7499409  35.2380490  30.9156895  55.3642511  35.1969147
  83.9310551   2.0631303  78.6506510  84.3142891   2.9323989  78.7678528
  83.1458473   2.2164191  78.1251240  58.9619398  47.3602009  27.9348373
  58.6379671  46.5969944  28.4131598  59.5763397  46.9992447  27.2957349
  28.8930845  60.5842972  22.6786709  28.8252330  61.4161301  22.2099733
  29.2505360  59.9742794  22.0334244  58.0294895  21.9063616  41.3003492
  57.1222925  21.6446328  41.1430931  58.3139133  21.3573980  42.0310831
  34.7665095  41.7011929   3.6612728  35.6004357  41.2336826   3.6140019
  34.5084906  41.8237066   2.7476823  50.2807283  55.0789165  34.4300652
  50.0938082  55.1695251  35.3644538  50.8770180  55.8015490  34.2339182
  13.9588833  52.3141766  23.8077593  14.4128931  51.6492224  24.3253899
  13.8827085  51.9278002  22.9353237  22.4006486  48.3854342   6.3226175
  22.4842310  48.6027575   7.2510654  22.6314354  49.1942024   5.8656001
  53.4972525  51.8359137  28.1961656  53.3887529  52.7842045  28.2682848
  54.0255547  51.7145967  27.4072361  33.1222224  58.1831646  63.1250525
  33.2683897  57.9689169  62.2036600  32.4910474  58.9025402  63.1064749
  96.9855499  15.5444288  74.6154594  97.3104572  15.8696830  75.4550314
  97.1534538  14.6024537  74.6423435  50.4409170  81.7250347  32.1677518
  49.8960352  82.4774456  32.3984408  49.9730444  81.3023090  31.4475942
  30.4962468  61.8769979  63.4456539  30.1919580  60.9968567  63.6669970
  31.3847065  61.7469263  63.1140661  46.7983818  24.5424700  10.9491026
  47.2717905  25.1557732  11.5112185  45.9331036  24.4677329  11.3515222
  29.3501234   0.1869458  10.2949941  29.6412730   1.0463712   9.9902773
  30.1599360  -0.2999109  10.4479873  49.9591780  62.3218107   9.8094290
  49.1358185  61.8347979   9.8430371  49.7885418  63.1159878  10.3157818
 111.4718533 105.7500267  16.8805408 111.8775654 106.5876007  17.1043766
 111.1805820 105.8593178  15.9753084  25.6291556  57.0919466  17.4929190
  24.9505472  57.7054787  17.7745211  25.9636474  56.7147732  18.3066070
   5.3875452  52.2184610  23.1457639   5.2333277  51.7682409  23.9762735
   5.4576737  53.1429148  23.3838868  27.7312422  21.2712240   5.9127575
  27.3395562  20.8355188   5.1558048  28.5084248  21.7067933   5.5627614
  15.4851437  48.1926584  33.0382609  16.2765610  48.5595465  33.4323239
  14.8873794  48.9366007  32.9643631  18.2882762  79.7536182  36.6752815
  17.7454221  79.6108437  37.4506259  17.8987634  79.1936445  36.0037613
   5.2175242  41.5293789  33.1922603   5.9177846  41.6319942  32.5477934
   4.9651355  42.4250889  33.4163785  37.3020697  53.0648994  18.0783606
  38.1332374  52.7165031  17.7558529  37.1275091  53.8228989  17.5205112
  43.7278557  64.9461651  38.8338757  43.9124918  64.2598248  39.4750309
  44.2620564  64.7142553  38.0742168  47.3716068   7.6439762   7.6939249
  48.0836105   8.1886244   8.0295372  47.5420666   7.5792259   6.7542541
   9.2458928  11.4247918  89.1176987   9.2520177  10.8157945  89.8561478
   8.6904228  11.0017252  88.4629440  62.7121115  73.5033894  13.0258024
  62.5433159  74.4160223  12.7916181  61.8963289  73.2043600  13.4274375
  26.0227370  59.4978857  38.2929707  26.5606952  58.7218094  38.1363320
  25.7333708  59.4094229  39.2010880  55.8396292  64.3056870   7.4479049
  55.9981537  64.0242243   6.5468603  55.1727676  64.9881411   7.3718405
  38.1529522  29.7052026  17.4659240  37.4522924  30.0862217  17.9951978
  37.8054380  29.7033668  16.5740383  42.5955820  45.4622221  50.3132439
  42.0679331  46.2211609  50.0645781  43.2632923  45.4005575  49.6301651
  28.3730745  32.5475454  29.0758133  28.6735940  33.3688664  29.4648552
  27.4790359  32.7319407  28.7878466 102.4113178   3.2309663  77.9590940
 102.4018002   3.9785796  78.5567665 102.0996666   2.4970058  78.4886312
  33.8052297  74.2355347  15.6167305  33.2856083  73.4655094  15.3858888
  33.2767224  74.9778032  15.3235495  73.5437012  12.2478294  46.4827967
  74.2362261  11.7175436  46.0885382  74.0019655  13.0000377  46.8575096
  63.6252935   0.2991933  39.5812631  64.3000467   0.5795545  40.1995993
  64.0911706   0.1880616  38.7525058  21.3692546  55.8537197  40.0899029
  20.9353185  55.0822163  40.4542065  22.0037484  56.1100435  40.7591915
  32.8854394  51.3616657   4.6380162  32.7271891  50.5025578   4.2466980
  32.0179367  51.7621136   4.6955585  30.1316857  57.7576399  11.5865672
  30.0347114  58.4507418  10.9335482  29.2753935  57.3305893  11.6115415
  68.2621145  55.6206846  23.3216476  67.8021479  55.9917736  22.5686836
  68.1161022  56.2517929  24.0263557  22.8788710  71.2170601  36.0218430
  23.3733153  71.7237520  35.3776217  23.4438682  70.4715919  36.2250280
  38.0548406  99.3385029  39.2401290  37.9238176  98.3903122  39.2373586
  37.9041886  99.6037579  38.3328390  19.7221792  72.1847916  47.7737617
  19.8703408  72.3226738  48.7093210  18.9555657  71.6129637  47.7343941
  90.8354759 101.2935352  69.2936563  90.1407528 101.6803265  68.7607574
  91.0020924 101.9422436  69.9775076  37.9332304  89.8321438  10.7260549
  37.9954076  89.0598202  10.1640236  38.8329577  89.9955845  11.0089183
  41.1453819 101.5502644   5.3477043  40.9010601 102.2054863   4.6940821
  41.4657497 102.0612812   6.0909772  22.8438234  98.8462734  56.3622046
  23.7410140  99.1088963  56.5678978  22.8421021  98.7226200  55.4130220
  52.5051641  76.1460972  62.8167057  52.3312330  77.0808363  62.9273415
  53.4540224  76.0658789  62.9139519  69.1831923   7.2675890   5.9014583
  69.3597651   7.1009511   6.8273556  68.4494162   6.6904813   5.6899184
  34.4945788  65.5868912  33.0637765  35.0168252  65.9239626  33.7917018
  34.9467921  64.7873306  32.7946329  21.8618250  77.4098349  20.2836227
  22.7950764  77.3821831  20.4945970  21.4257836  77.1329689  21.0895061
  39.6174860  47.7816868  25.1258588  38.7706256  47.4214602  25.3891015
  39.4451594  48.2107925  24.2877626  66.9918299  80.7323742   3.0433226
  67.5523043  81.2104702   2.4321634  66.3928175  81.3949394   3.3874366
  50.3436089  72.8893566  46.5884590  49.4175291  73.0738640  46.7451859
  50.8093548  73.4918165  47.1684217  42.5112391 104.9658966  39.1204882
  41.5802526 105.1681805  39.0278745  42.5804138 104.5427322  39.9762774
  21.3263273  68.1306601   9.9668294  20.5057406  68.5890245  10.1478708
  21.7797995  68.1094742  10.8095312   2.2709540  31.5193677  21.6342974
   1.4260215  31.9060636  21.4045429   2.5891694  32.0539951  22.3617196
  37.8585577  99.1285610  53.5675526  38.4530497  99.7858620  53.9291763
  38.1741309  98.9852333  52.6753044  24.4704795  22.3907733  31.0509205
  24.7249317  22.0930171  31.9243193  24.6878362  23.3229327  31.0428929
  24.4991493  72.4144173  12.1700180  25.3552628  72.8277683  12.2815585
  24.6988130  71.5252924  11.8770719  63.6641979  67.7594805  27.4774265
  64.0862083  68.6176252  27.5189567  62.7652168  67.9474688  27.2077394
  12.4739802   4.9972689  79.3034458  12.0857406   5.8721364  79.2930651
  12.3676765   4.6774086  78.4075546   9.1992831  27.0282078  46.7990065
   9.1342908  26.3638568  47.4850416   9.2455488  27.8584194  47.2731781
  16.9198744  23.0755331  91.4432793  16.8782036  23.8592865  90.8953510
  17.5761645  23.2829573  92.1084795  68.6829042  78.9984894  22.1260977
  68.9334106  78.4035301  21.4193439  68.1239033  78.4708691  22.6965070
  46.3980865  85.2050686  50.9157372  45.6581354  85.1927948  50.3086519
  46.0909939  84.7136784  51.6776180  80.3856754  74.0802431  71.7959929
  80.9108353  73.8967180  71.0170507  80.3983688  75.0341606  71.8741226
  61.6670465  92.1877098  58.0457830  61.6824245  93.1074429  58.3105183
  62.5735140  91.9914055  57.8091097  80.6023312  54.6991301  13.3636880
  80.1795769  54.1523838  12.7014375  80.7484531  55.5371189  12.9247653
 104.8313713  74.1189003  19.0425396 104.8775959  74.0015936  19.9913979
 104.5014763  73.2827139  18.7136149  38.3446956  14.5477414  74.2597532
  39.1910291  14.9926901  74.2153120  37.8710485  15.0029504  74.9559402
  70.3338432  77.2817707   3.9843500  71.1415911  77.3758268   3.4794474
  69.7460747  77.9444408   3.6215422  45.4220819  79.2970705  11.7251825
  45.0059748  79.0926027  12.5626075  46.3299894  79.0138292  11.8333864
  29.3741345  48.6895227  25.9754944  30.2824163  48.3919859  26.0277367
  29.3513608  49.4841528  26.5086722  10.7487547  46.1394215  81.6957569
  10.2467513  46.4296961  80.9342098  11.4810538  45.6461620  81.3260746
  51.8155146  50.1018524  34.2049432  52.3950195  50.1863289  34.9620891
  51.5917873  51.0031271  33.9728260  25.5242848  52.5428391   9.4365782
  25.5757451  51.5887117   9.4933379  26.4186144  52.8412056   9.6020627
  51.6840076  28.0670500  27.1603703  51.5253544  28.1185985  26.2178183
  51.4758730  27.1611810  27.3890948  52.2324610  78.0658388  29.1361356
  52.0679998  77.1867609  28.7949538  51.8929625  78.6524725  28.4602427
  40.2581215  57.2724152  13.0668128  40.6746721  57.5065327  13.8962138
  39.9854970  56.3623953  13.1841910 107.1990108 100.2273846  90.1227760
 107.6437855 100.7534218  89.4581795 107.7375889 100.3278255  90.9076786
  62.4206972  85.9383297  14.4509792  62.3738289  86.1458492  15.3842378
  63.2119083  86.3825893  14.1462731  50.5990839  62.0935822  43.8940477
  49.9908781  62.7602720  44.2131805  50.4451656  61.3378859  44.4610262
  36.2789822  37.4827075  86.2902641  36.3080263  38.1786203  86.9468403
  36.9070721  37.7573538  85.6222057  50.4873133  57.6969385  23.4516144
  51.4033890  57.8256750  23.2057095  50.0167751  57.6728153  22.6184011
  99.8699188  62.1288824  30.4802227  99.9654102  61.9394827  31.4136243
  99.5120239  61.3230467  30.1077032 106.6835117  11.5648699  89.3557739
 106.9956112  11.6577411  88.4556580 105.7899094  11.2336254  89.2664528
  56.7621660  85.7395458  31.4920926  56.4277172  84.8635006  31.6842604
  57.6133442  85.7720757  31.9287539  18.4263325  81.6391754  19.8572636
  17.5821173  81.7692471  19.4252741  18.5381150  82.4170685  20.4037309
  41.7018223  41.8902493  48.9928532  41.6708565  42.3460960  49.8339701
  40.7833099  41.7606878  48.7566853  23.8291669  16.0065472  84.7264194
  24.3898606  16.6611314  84.3100357  24.1355300  15.1704752  84.3752003
  55.8845186  69.0940142  60.0868893  55.2811623  69.0687037  60.8295536
  56.3489246  69.9253798  60.1838160  33.3630323  72.2628069  27.1179223
  33.9051223  71.4844990  26.9890618  32.6818585  72.1936846  26.4489985
  25.7232547  66.0668659  34.6594405  26.4185834  65.5458784  34.2577910
  25.9845424  66.9746733  34.5050335  51.2442970  56.1651516  10.6933033
  50.7152224  56.4010620  11.4553118  51.8646622  55.5156469  11.0242474
  90.6294441  68.5180664  19.7878492  91.1057186  68.7210941  20.5929446
  90.7399654  69.2961979  19.2414761  71.6402197  76.9865990  14.4526935
  71.8684101  76.4240599  13.7126160  72.4271441  77.5089264  14.6080887
  46.7911100  88.0442142  42.2234440  46.2648726  87.3099041  42.5398254
  46.6222572  88.7475491  42.8503752  85.8536053  64.8628378  54.3894720
  85.9133434  63.9168644  54.5228910  84.9157524  65.0509691  54.4249630
  57.6459265  69.5552826  29.4274116  57.4117374  69.1904974  28.5739946
  57.3640585  70.4689550  29.3828607  56.0187817  86.4532471  17.4003017
  56.2831831  86.1810303  18.2790661  55.0631857  86.4926815  17.4391437
  76.4688349  84.3332958   2.8434563  76.3646793  85.1270676   2.3187527
  75.8035040  84.4092846   3.5274124  46.4990854 103.9186573  58.1805897
  46.3402796 103.0251503  58.4849882  45.9453583 104.0094757  57.4051142
  86.8778324  48.5262203  75.1168203  86.8906593  48.6501741  76.0658741
  85.9934711  48.7811899  74.8539066  20.1412272  94.3930817  57.7552032
  20.0675750  94.9199390  58.5509586  21.0156584  94.5886707  57.4185371
  34.6474934  51.2063837  25.2890038  34.5584154  51.0728121  24.3453646
  35.3569603  51.8431902  25.3748441  61.0958672  97.8510571  10.5385923
  61.8861914  97.9506302  11.0693514  60.6953812  98.7204456  10.5398762
  48.5750961  51.6375542   7.6369041  47.9807234  50.9103298   7.8215474
  48.3505869  52.3017645   8.2885587  45.6926489  53.7036896  12.8700471
  44.9068403  53.4775782  12.3724449  46.0781670  54.4360638  12.3891783
 101.9556999  13.1453991  50.4912615 102.2918606  13.2935572  49.6073580
 101.7850780  14.0231347  50.8328724  84.3022251  73.9643812  25.7595801
  83.6460304  74.6288729  25.5496049  84.4074440  74.0233278  26.7091513
  42.7102375  93.8634682  11.2274599  43.1684256  94.0904999  10.4182935
  41.8962574  93.4535217  10.9348559  71.3686514  87.8987980   6.0618627
  71.2910509  88.7226677   5.5807626  72.3110771  87.7755737   6.1753738
  90.5493627 105.9279067  85.6084919  90.9525285 105.4704311  86.3463306
  90.1817916 106.7240563  85.9922409  54.0144014  49.8130274  14.5355082
  54.8583794  49.3631220  14.5744646  53.6112833  49.6400642  15.3862786
  25.6415963  50.7302713  33.2600284  26.0970283  50.6374264  34.0968037
  24.7217989  50.5667782  33.4685254  38.7040591  59.5691776  33.8846254
  38.5779023  59.6632099  34.8288059  39.4964790  59.0388680  33.8005042
  40.2595234  67.2112179   6.7633557  39.3901920  67.0112419   7.1104908
  40.5075932  68.0287123   7.1950930  54.3479776  65.9575081  56.8480492
  53.4640121  66.0147190  56.4853334  54.5590401  66.8544579  57.1072054
 100.1348114   4.9780658  40.2197313 100.6828880   4.2238933  40.0027800
  99.6037292   5.1214421  39.4363880  73.1819725  82.3728848  32.5123906
  73.8982296  82.4988270  31.8900228  72.5537300  83.0622673  32.2972441
  27.7500772  67.7333736  33.5594177  28.1713438  68.0448580  34.3605065
  28.4764695  67.5334215  32.9689908  10.7258272  36.5851593  89.7949028
  11.2107277  36.2776256  90.5607605  10.3690076  37.4323583  90.0616741
  72.1584702  82.1649837  27.9606056  71.2188625  82.1920872  28.1412625
  72.3206711  81.2675476  27.6698470  83.9718342  86.3184738  22.5933456
  84.6318722  86.7633438  22.0616722  83.8089752  85.4950047  22.1333504
  47.9188156  54.3897009  16.7141223  47.9034710  53.5286665  17.1319938
  48.7204075  54.7994995  17.0393133  63.9107418  40.0870514  18.7716866
  63.1508493  40.2553654  19.3288767  64.2107964  40.9565496  18.5067821
  34.4098687  67.9763031  44.4141960  34.1521764  67.8840828  43.4969616
  35.2507353  68.4325314  44.3820381  58.0638599  60.4040575  20.1018834
  57.2240829  60.8359814  20.2582335  58.5790110  61.0498762  19.6183896
  14.3892288  22.6084042  84.9245453  13.8683844  21.8133759  85.0380516
  15.1459599  22.4827552  85.4970837  50.1677561  72.8638029  30.6558394
  50.7982397  72.2178173  30.3373623  50.2804947  72.8601170  31.6063714
  84.7085571  81.1115170  37.8641510  85.6206512  80.9586239  38.1110454
  84.4383335  80.3012371  37.4320984  36.3594198  37.6779580  40.7214689
  35.5851674  37.8752756  41.2485695  36.7746425  38.5284066  40.5780792
  22.0811343  10.6718230  72.9731369  21.4665747  11.1880910  72.4515867
  21.6669774  10.6038249  73.8334179  51.5988398   4.7877914  39.7024441
  52.2228670   4.2293343  39.2388201  52.1375322   5.4756665  40.0934315
  68.6091375 105.2595043  28.8777971  69.4408751 104.8258781  28.6869907
  68.8583803 106.1313057  29.1845179  53.9650488  90.7220268  41.1186171
  54.1687870  90.4723930  42.0199537  54.2495203  89.9744129  40.5929041
   9.8831701  85.5562305  44.6590519   9.8428148  86.5071583  44.5574331
  10.7578182  85.3192997  44.3506861 105.0671959  22.6185799   4.9192131
 105.0214195  21.7330813   4.5586193 105.3145790  22.4917102   5.8351499
  46.5587854  72.5506401  19.2725766  46.0103130  72.5354099  20.0569105
  47.4553776  72.5245571  19.6067452  69.3495321  80.8284664  47.6645041
  70.2117157  81.0405159  48.0221462  69.3629837  79.8776722  47.5547791
 111.0995293   9.5531517  37.3556399 111.7141724  10.2834976  37.4265790
 110.7416344   9.4547391  38.2379460  96.0429192 104.8653030  42.0759296
  95.6610203 104.2818832  41.4201832  95.6584835 104.5787621  42.9043818
  88.9520645  74.1201305  12.1124041  89.7552109  74.3048000  11.6254878
  88.6976624  73.2415056  11.8303978 100.2844429  44.8039341  50.6658792
 101.0467148  45.2620220  50.3118658 100.2321815  43.9959097  50.1553869
  92.8472710 105.4113770  28.2805562  92.5281525 105.4098415  27.3781180
  92.9466057 104.4852257  28.5010505  64.6729612  73.4234571  22.6448083
  64.0247679  73.8437939  22.0796561  64.9245501  72.6301765  22.1719027
  79.7069550  90.3624439  15.9943116  79.0771055  91.0257721  15.7123148
  79.4806337  90.1904964  16.9083369  59.5856524  81.2113285  58.6165190
  60.3384256  80.9888268  58.0687475  59.8834610  81.0467052  59.5111895
  64.2589045  83.9535046  40.9828997  64.2543030  84.8218346  41.3856411
  63.4058905  83.5812283  41.2065458  44.4607019  84.7793388  31.2185526
  43.7864971  85.2499676  30.7284617  45.0854635  85.4567623  31.4773965
 101.7829227   9.1700882  35.3385997 102.5301647   9.7038472  35.0684953
 101.0169315   9.6718168  35.0597477  47.8235197  59.5108843  61.5863323
  48.7530899  59.7013569  61.7122364  47.4703693  59.4443178  62.4735069
  59.7436714  97.2264481  12.9535067  59.8953247  97.4492836  12.0350420
  58.9658260  96.6687870  12.9393852  39.4836950  98.6436939  57.6016092
  40.3523493  98.9661312  57.3613834  39.3546557  98.9492702  58.4994984
 106.5146542  23.6220145  83.2729912 107.0255661  24.4209027  83.1426907
 106.5865612  23.4419417  84.2103481  62.7776480  98.3915424  28.7975955
  62.2507524  99.0359974  29.2701387  63.1321478  98.8735008  28.0504155
  30.2704191  15.2171934  31.0291481  30.6521773  15.2256846  30.1514101
  29.8953915  14.3410909  31.1187553  71.6319180  92.4518967  14.4093275
  71.6628313  91.8838120  15.1791084  72.0121431  91.9243622  13.7069249
  76.4834404  60.7362032  15.7181168  77.0231819  60.0429964  16.0980797
  76.8422270  61.5456533  16.0818458  12.7622378  43.7927198  49.7104549
  12.1393716  43.6802530  48.9923906  12.8896773  42.9097843  50.0574732
  39.4235969  85.0577831  52.0134783  40.3800535  85.0649548  52.0505524
  39.1489553  84.9906635  52.9279709  80.2825737  89.4257832  19.3316972
  79.4314528  89.4540787  18.8946342  80.1600361  89.9421597  20.1282978
  77.9852295  82.4129486   2.0941216  78.6480665  82.9260540   1.6319427
  77.2734833  83.0320072   2.2566651  83.4924698  65.1604223  32.3822093
  82.7444935  65.6776810  32.0835280  83.8918018  64.8299837  31.5774894
  50.0961494  91.5403175  38.8631487  51.0251999  91.7246342  38.7248802
  50.0820637  90.9034252  39.5775723  79.3198109  63.6408281  40.5111456
  79.0871429  64.3368483  41.1256886  80.2367592  63.8094139  40.2943039
  75.7607555  79.1169930  27.4163103  75.3611755  78.4992981  28.0287027
  75.4176903  79.9709749  27.6794648  49.3567276  71.5330315   5.2797717
  49.3264532  71.5757847   6.2355375  49.7163010  72.3792028   5.0134391
  54.5496273  85.1447392   3.0306017  55.1397514  85.1463127   3.7842479
  54.6176720  84.2586708   2.6749653  73.9272213  68.4508801  28.2951474
  73.1784630  67.9918194  28.6757541  74.3593645  68.8648415  29.0422201
  44.4037914  90.2155685  14.3171000  45.1835871  89.7102356  14.0873444
  44.6658659  91.1283207  14.1969168  87.0695114 100.7119846  29.6833229
  87.2166824  99.7737408  29.8027515  86.5644646 100.9750462  30.4527092
  53.8777971  61.4158392   5.2475309  54.5088720  60.9276342   5.7763344
  53.0276537  61.0483170   5.4892397  76.1286688  98.5360146   2.9038137
  76.8955135  98.7725449   2.3820539  75.7719803  99.3738556   3.1988055
  25.9282589  10.2621269  41.0156965  26.1426902  10.3024983  41.9476938
  26.0609293  11.1561370  40.7004547  90.9151554  88.7985897  18.9815402
  90.5942440  89.6040916  18.5760725  90.1512432  88.2223701  19.0068495
  58.7203789  95.3964138  24.8293447  58.9570475  94.4698429  24.7882080
  57.9601860  95.4752541  24.2530417  51.1069489  79.7871590  43.1021690
  51.2748051  80.6852627  42.8167295  50.3603697  79.5036983  42.5744343
  57.2231102  64.9651194   9.6078902  56.6224241  64.4558620   9.0637702
  56.9018745  64.8401022  10.5008686  40.6769037 105.1664829  41.9445133
  39.8746204 104.8217010  42.3365545  41.3264132 104.4770527  42.0825911
  62.8582716  80.0701618   3.2925293  62.2036886  79.4346762   3.0028525
  62.9862213  80.6435871   2.5368583  71.6960764  66.5967464  39.8912644
  71.0870266  66.0317087  39.4158530  72.5612116  66.3351679  39.5760703
  40.7757187  77.3692608  53.1389999  41.2696981  77.4828959  52.3270226
  39.9553967  77.8388405  52.9880047  48.5706806  93.9199066  75.7497644
  49.4996881  94.1071510  75.8843374  48.3941126  94.2138386  74.8560858
  79.0294170  92.9944324  68.3002949  79.1889191  93.8598442  68.6769533
  78.5057831  93.1666279  67.5177431  77.8994942  50.9442186  21.1075282
  77.9124689  50.0060749  20.9179306  77.8569460  50.9950256  22.0624328
  63.3050394   6.9399691   8.9351392  62.4521875   6.6512620   8.6102933
  63.9258385   6.3078225   8.5728747  43.3659077  43.2924986  73.0322695
  42.8043413  42.8352165  72.4063587  43.1781578  44.2201471  72.8892756
  81.5364933  60.7108736  12.1151543  81.4636898  61.5156269  11.6020203
  81.8957710  60.9945202  12.9558074  40.9647369  30.9863138  81.0303974
  41.4993095  31.1068511  80.2455807  41.0048008  30.0461006  81.2054062
  75.9168863   6.5389156  11.7832875  75.9468365   5.6034547  11.9839048
  75.4941893   6.9339931  12.5458300  18.8185692  16.6548097  17.9717529
  18.7689209  16.0907388  17.2000074  17.9548085  16.5818214  18.3777356
  61.1406279  85.3140450  34.4741535  61.9886875  85.7453060  34.5792556
  60.6004477  85.6731319  35.1780653  59.2950439 103.9670181  45.4331160
  58.9991093 103.4887791  44.6585560  58.5598755 104.5373249  45.6578588
  80.2286911  72.0094395  27.3978329  80.0815582  71.4838648  26.6114783
  79.5540810  71.7173147  28.0108547  43.6747265  80.7195663  63.2481909
  43.3444023  80.9888172  64.1052914  44.5718575  80.4316139  63.4169197
  63.9658356  76.8390322   1.4948605  64.6302080  77.4166584   1.8706118
  64.1331911  75.9872580   1.8982184  67.4129581  95.8026600  22.7511978
  66.8377924  96.5112114  23.0399227  68.2350445  95.9567547  23.2166719
  87.2134399  76.7798424   4.6837211  87.6198196  77.0478439   5.5078936
  87.3896217  77.5040913   4.0831715  32.0464039  67.4379253  85.5536079
  32.8265738  67.7795935  85.9904480  31.7187762  66.7597437  86.1443329
  52.2937250  86.4454842  53.6741924  52.7191257  87.2771740  53.4654903
  52.5988913  85.8434296  52.9954958  78.0796814  73.2540178  46.4015102
  78.3875704  74.1212845  46.1382866  78.4154510  72.6653099  45.7255554
  67.8699541  93.2139206  46.5673685  67.8594637  92.2850132  46.7981339
  66.9649839  93.4108925  46.3255787  56.0915232 102.6968479   4.4489664
  57.0237780 102.4800968   4.4364190  55.6527948 101.8816662   4.2055961
  56.2209702  69.3717194  27.1438813  55.6500149  70.0934410  27.4072552
  55.6528521  68.6013985  27.1527314  65.8418036  80.1542568  36.1046457
  65.0301170  80.6552982  36.1843872  65.8259773  79.5526028  36.8489504
  45.5636644  79.7204208  33.7179232  45.0586128  79.2145014  33.0813718
  45.9432936  80.4360867  33.2080817  61.8934917  98.4654903  20.5074453
  61.5296888  98.8569641  19.7133219  61.2300968  98.6251450  21.1787534
  72.3644257  71.5679026  45.7174683  73.2854891  71.6698980  45.9572077
  72.2235346  72.2156096  45.0269175  63.5329914  60.2877092  13.5518360
  64.3308401  60.8086729  13.6427653  63.6758518  59.7667742  12.7616155
  45.6928730  79.1719627  14.8878050  45.8533192  79.0695143  15.8258855
  45.1173592  78.4411812  14.6620381  47.2022009 102.4573803  22.6932907
  46.4228535 102.9186249  22.3832726  47.2773361 101.6984653  22.1148133
  70.2458954  91.4902592  20.6801510  69.4038153  91.1825371  20.3448343
  70.2780247  91.1664486  21.5803432  72.9558086  85.7061386  39.2995334
  72.8634024  86.1966324  38.4827614  72.6148987  86.2952423  39.9725628
  79.5198488  23.5351872  73.8984346  78.9921522  22.9400849  73.3658743
  79.5462227  24.3483448  73.3941412  57.7623558  87.7312851  38.6516714
  56.9258213  88.1853867  38.5505414  58.1755352  88.1550884  39.4039392
  35.8831620  83.7329292  56.4265966  36.7094946  84.1100311  56.1245918
  35.3788853  83.5887337  55.6258821  65.6668758  92.8214264  56.0880566
  64.7671843  92.9169464  55.7755470  66.0544968  93.6887455  55.9708166
  33.3745527  97.1835613  28.6669016  33.0781102  97.3962879  29.5518327
  32.7026010  97.5529289  28.0939436 103.5116386   4.0234071  47.0499229
 104.4291782   4.2503682  46.8987942 103.5460472   3.2310861  47.5859070
  49.0670061  90.8870220  48.9452505  48.3278465  91.4946842  48.9202309
  48.7542057  90.1101589  48.4817171  74.3378782 103.4008026  47.0260763
  74.1136932 103.4992695  47.9514265  75.1411963 102.8803158  47.0283222
  42.0080996  80.7064819  35.9649706  42.5308943  81.2355042  36.5675139
  41.1303425  81.0851765  36.0135746  70.2158737 100.9347916  16.8042386
  70.9043550 100.3492260  16.4890671  70.0914383 100.6869125  17.7203751
  62.8825092  82.2865963  58.9496946  62.5330734  82.1611118  58.0674362
  62.3638868  83.0044937  59.3128538  76.3964176  89.6821880  27.6537919
  76.8923950  90.0743866  26.9351649  76.7342615  88.7889290  27.7184820
  71.2569046 100.9499168  60.2318907  70.3571367 101.2182331  60.0457239
  71.5669918 100.5661869  59.4116306  70.4775476  88.7340450  14.1725397
  71.4188814  88.8516140  14.3002057  70.2660322  89.2910385  13.4233773
  73.2936573 103.4806919  58.2651472  72.7755833 103.6933517  59.0414238
  74.1582823 103.2554436  58.6085510  16.7240298 103.8226414  22.4336219
  16.8094552 102.8724575  22.5116301  15.7996511 103.9640331  22.2292638
  45.7210875  94.9655056  45.5850506  46.3053989  94.4243813  45.0540257
  46.2100458  95.1249123  46.3923597  42.0848989  87.0746040  58.6341143
  42.3053551  86.4505386  57.9426098  42.8950262  87.1740818  59.1341448
  71.3134861  78.2786512  47.7370644  71.3076162  78.3631563  48.6905098
  72.2412634  78.2859373  47.5016737  61.8453503  87.1400166  17.9772866
  60.8919859  87.0547295  17.9844153  62.0289993  87.8286457  18.6162686
   8.8567275  40.7117987  88.0642605   8.6122423  40.8755398  88.9751148
   8.0557680  40.8789682  87.5675201  66.4661980 102.4063492  31.7611408
  67.1063232 103.1073189  31.6382408  66.9025421 101.6223621  31.4276743
   8.2968539  89.3186760  36.1042047   8.4611058  88.4668922  35.6995964
   9.1567743  89.7377872  36.1375952  85.1573372  81.1252499  20.2561951
  84.7861671  80.3632069  19.8115039  84.5729160  81.2773800  20.9988499
   3.9744735   1.5769780  29.4249845   4.7751015   1.2992537  29.8700643
   4.0514991   1.2118763  28.5435081  83.0493736  64.5722294  37.5158930
  83.3463955  64.6774340  36.6120458  82.8123093  63.6473560  37.5839877
  59.1796732 100.9392929  77.1441984  59.4606686 100.1872635  76.6229296
  58.2431459 101.0195637  76.9633579  49.9976587  30.0074863  85.2656651
  49.2562866  30.1943135  84.6897411  50.4842710  30.8308578  85.3044319
  22.2871661  20.3150105  89.8561859  21.5783215  20.5013227  90.4718590
  21.8682241  20.3339529  88.9957428  79.2026377  60.0265503  13.0507457
  79.0408325  60.6673765  13.7431288  80.0554943  60.2717829  12.6919639
  80.1658344  94.4826698   3.9976874  79.5389223  95.1322842   4.3158093
  79.6921349  93.6519718   4.0398186  68.3620834 100.7605171  43.4148598
  69.0875006 101.3768291  43.3140278  68.1391382 100.5045223  42.5198793
   7.7123475  38.5026860  20.9370685   8.1105286  39.3721437  20.8955145
   6.7822945  38.6721087  21.0871649  45.5724573  96.6778755  38.7969470
  45.2034664  96.8474960  39.6637273  46.0532188  97.4768543  38.5807610
  41.5005064  82.0150471  42.7313089  41.0060263  81.2755585  43.0846882
  40.8835697  82.7466679  42.7502441  79.2249346  97.4528980  24.3042541
  80.1711750  97.4341965  24.1610694  79.1270161  97.6824188  25.2283549
   3.2531774  15.2502334  23.4767795   2.4340421  15.6835198  23.2369661
   3.1370950  15.0105274  24.3961811  83.7158489  81.3335323  59.9866676
  83.2220268  80.5214024  60.0999260  84.1419506  81.4746284  60.8320999
  29.7244716  75.9159660  23.5306144  29.6828151  76.6393852  22.9051876
  30.4197979  76.1653614  24.1393447  58.2232618  69.5311785   8.8154876
  58.9864397  69.0963602   9.1959071  58.5768175  70.3209734   8.4062755
  55.7519109  60.3332661  -0.2341858  56.0716374  60.4814236   0.6557831
  55.0225349  59.7225414  -0.1280895  40.0495529  59.0458393  47.1128082
  40.3026199  59.0548706  48.0359030  39.8331785  59.9570084  46.9148540
  63.1590462 101.6899586  21.1629105  63.5326529 100.8529091  20.8872223
  62.2414541 101.4924526  21.3506675  32.7594566  47.2735262  81.9331837
  33.2813001  48.0756903  81.9120789  32.1823001  47.3431778  81.1727428
  15.6247318  35.6158662  91.2889385  14.9975979  35.9768438  90.6623363
  15.1016581  35.4223943  92.0668793  61.7503595  79.7601700  37.4552941
  60.9693813  79.7898960  38.0079460  61.6833925  80.5397224  36.9038963
  75.4690361  79.1011238   5.0335884  75.8554983  79.9142504   4.7084635
  75.7456112  78.4357738   4.4034702  60.3510094  58.4586573  11.4447117
  60.4094601  57.9212475  12.2346509  60.3730011  57.8287506  10.7243204
   8.5444194   9.3697143  68.6483288   7.6225287   9.6049398  68.5433626
   8.6470664   9.2165071  69.5875978  79.1946507 104.0166187  79.1990376
  79.0046072 103.1048679  79.4200182  79.4144440 104.4251823  80.0362968
  74.0837765  91.2148285  17.9162252  73.7143278  90.8716106  18.7298214
  75.0062847  90.9612560  17.9463732  56.4395761  29.2016339  77.1391249
  56.9320297  29.9139166  76.7312288  57.1078777  28.5702229  77.4054337
  63.9822483  99.8662949   9.3023437  63.3052111  99.7485161   9.9686581
  64.8030472  99.8795605   9.7946286  52.7765894  87.4095631   8.8544273
  53.2195234  86.8571568   9.4985473  51.8442106  87.2646904   9.0154088
  80.8998108   1.3597859  39.4645977  81.4773464   1.5507686  38.7255383
  80.7024574   0.4270203  39.3795490 103.7197208   3.5439608   8.2325935
 103.6860752   2.8213665   8.8594568 104.6534157   3.7269944   8.1279647
  55.5056715  80.1357174  37.3901868  54.6632004  80.3006172  37.8136039
  55.2786207  79.8838520  36.4950633  99.2133141  17.4526477   9.2370135
  99.5499706  16.8812251   8.5468191  99.7843266  18.2204711   9.2120135
  80.8744144  15.5300224  56.4379883  81.7631340  15.8855128  56.4327192
  80.3130245  16.2860322  56.2661648 101.5704918  95.6522179   9.4195783
 101.3146496  94.7370052   9.3048465 100.9788990  95.9833813  10.0952828
  61.0976458  50.6581116  14.8320782  61.4010572  51.3077164  15.4662597
  61.6249228  50.8221960  14.0502298  89.4493580  81.3908482  35.9055495
  88.6406422  81.2787056  35.4059172  89.6132183  80.5307007  36.2922525
  66.1035204  89.4581318  31.7508149  66.0482121  90.4057980  31.8737292
  66.6657352  89.3484879  30.9839225   6.6774869   2.0242272  31.6827297
   7.1002001   2.5607005  32.3533583   5.9365284   2.5522953  31.3854837
  72.4030399  95.7515812  47.0007467  71.6742659  95.4305363  47.5318289
  72.6675081  96.5676880  47.4253178  13.6017799   9.2488664  32.2234178
  14.3400764   9.8135459  32.4520826  13.4661222   8.7058014  32.9998899
  96.8106461  57.1709919  21.9628501  97.1560669  56.3557816  22.3266387
  96.1788368  57.4752474  22.6143694  52.7224541 105.6418228  64.4506454
  52.9312611 105.4106045  63.5455608  51.7890978 105.8535194  64.4345379
  49.6611500  85.1644802  35.6940532  50.4157925  84.6399498  35.9616613
  50.0352812  86.0049152  35.4296160  35.7487917  97.6172447  37.2293925
  36.1016297  98.4494495  36.9144893  35.4731536  97.1583557  36.4358687
  80.5084038  67.7895975  49.1714001  80.8867645  66.9975328  49.5531225
  80.1303673  68.2573462  49.9160719  67.3958731  70.0117683  64.9365520
  68.0765104  69.9883556  65.6091690  67.8416061  70.3411245  64.1561174
  99.7517872   1.8714252  19.6148121 100.1099205   1.4535448  18.8316500
  99.8197746   1.2021534  20.2957559  76.6339159  82.2616577  20.5414820
  77.2371197  81.7520523  20.0004745  76.1852264  81.6093349  21.0794282
  79.2605257  81.1475754  41.6182327  79.9574995  80.5649853  41.3164806
  79.4860458  82.0017433  41.2497759  87.5625706  74.3962479  26.1034226
  87.0030212  73.9322424  26.7261934  87.7067280  73.7674189  25.3963017
  87.3561382  82.9596901  26.0474968  87.5926113  82.2114754  25.4993248
  86.4421463  82.8032494  26.2849641  94.9132824  17.7273154  36.2861776
  94.9494267  18.6753953  36.4129496  94.7702217  17.3735714  37.1640325
  71.7448092  75.7004166  16.8862426  71.9519234  76.2795353  17.6196957
  71.7939806  76.2644434  16.1144352  43.2853222  97.4434185  66.2196875
  43.7440395  97.4182606  65.3799343  43.9835644  97.4913311  66.8726778
  81.2621212  58.7811899   7.7604640  81.2959671  59.7067118   8.0023062
  80.8789349  58.3481646   8.5232788  34.1372132  57.6331615  89.3084908
  33.8628483  57.8828669  88.4261131  34.6668434  56.8461132  89.1809082
  19.4522130  63.9625978  88.5186577  20.3884077  63.7699127  88.4672356
  19.2759454  64.5017242  87.7476120  10.6162620   1.5405370  36.2011409
  10.2191126   1.7747118  35.3622937  11.3978922   1.0410398  35.9649444
  43.8329840  94.0633965   3.9646387  43.2193089  93.5756207   3.4153569
  44.6873283  93.6784172   3.7694007  75.8104753  93.1436634   6.2407261
  75.4810619  93.4058571   7.1003592  75.7145405  92.1913719   6.2277251
  20.9542060  37.0965767  78.0144787  20.9639168  36.7907739  77.1074915
  21.6098642  37.7935171  78.0392838  41.1711693  78.3797121  78.1715250
  41.4296865  78.6626053  77.2943878  40.8275604  79.1707563  78.5867548
  73.4637833  64.0049839   9.4428182  72.8341484  63.5689163  10.0169563
  73.5752487  64.8748446   9.8264199  81.5557384  56.8370152  41.6295767
  81.6143990  56.9571495  40.6817579  81.8805885  57.6595497  41.9958210
  71.7543840  90.4952717  34.6151376  70.9939384  91.0351276  34.3994689
  72.4321079  91.1242104  34.8628426 106.1846066  21.3608789  47.8857517
 106.4617729  21.0657239  47.0184040 105.3417015  20.9299612  48.0273581
  92.5355148 100.5240250  48.3280516  92.5251865 101.0139370  49.1503096
  93.2483864  99.8940182  48.4335566  93.2634599   0.8203954  48.1797791
  93.5153730   1.7423314  48.2326460  92.3076923   0.8299321  48.2311726
  56.1503649  95.6908989   4.2927197  55.9790564  96.5751266   4.6168056
  56.0022354  95.7488823   3.3488294  53.6011600  34.9472427   5.9449548
  53.6966324  34.6569347   6.8520588  54.2927217  34.4848895   5.4714555
  44.5419216  85.9565639  33.9423919  45.4291534  85.8088589  34.2698550
  44.0931702  85.1226807  34.0820074  72.0295191  63.4609652  42.5714016
  71.9183350  63.0696011  41.7049742  72.7842617  63.0057812  42.9447651
  63.3028173  83.2598114  27.5538611  62.3859596  83.4191418  27.3297644
  63.2989120  83.1328297  28.5025954  46.4939928  73.8820839  41.5407467
  46.8835688  73.0993128  41.1512184  45.9445286  74.2467499  40.8469582
   9.1942030   6.4420366  90.8947182   9.2196667   5.7902563  91.5952682
   8.2717288   6.6895097  90.8312321  71.4972544  61.6763830  23.9855909
  70.6692600  61.1962461  23.9967370  71.3240767  62.4397278  23.4346414
  42.3928976   8.8481772  81.9562244  42.2371197   8.7749940  81.0146332
  42.2585297   9.7759134  82.1498299  42.2589970 102.7241802  19.6796525
  41.8656158 101.9004631  19.9677014  41.7588234 103.4008980  20.1358461
  49.7041941  92.6921463  18.8856852  50.2586842  93.3659554  18.4922957
  49.6136379  92.0276642  18.2026851  31.8326473  98.3626747  19.3864858
  32.5116348  99.0305328  19.4822717  32.2489476  97.6696587  18.8739824
  73.3069897 103.4116268  16.0192811  72.7940512 103.3167458  15.2167058
  73.4689713 104.3523502  16.0901999  31.9760275  46.0813141  46.8500090
  32.8032827  46.5264797  46.6664171  32.0398855  45.8273506  47.7706909
  59.4268656  71.3398504  23.7233591  59.2854500  70.7007313  23.0249572
  58.6512756  71.9001579  23.6959195  64.8420429  80.7898331  14.3532407
  65.0787115  80.0973988  14.9702919  64.5545197  80.3232956  13.5684443
  75.6074381  78.3963013  31.7536139  76.3359356  79.0170383  31.7391682
  74.8854733  78.8834953  32.1506548 109.8624325  32.7278495  79.2269182
 110.6683350  33.2354116  79.3225479 109.7553062  32.2874117  80.0699902
  73.0431366   6.0967487   3.1006289  72.8226328   5.3854012   3.7019557
  72.6205826   6.8685591   3.4774467  46.6683865  83.8353920  44.6507788
  45.9512377  83.2169724  44.7903442  47.2358561  83.4039021  44.0120125
  74.4273996  65.6465912  42.8795576  74.3714046  64.7252750  43.1330681
  75.1171780  66.0068703  43.4368992  42.7780724  11.6064656  90.8416367
  42.3963213  12.4102974  91.1942768  42.9684210  11.0731089  91.6133404
  98.5248947  49.3775320  91.2242508  97.9083347  49.2787218  91.9497395
  99.1842651  48.7005472  91.3764191  92.6613331  69.2663145  25.8869314
  91.8686104  68.9646578  25.4432797  92.3403454  69.7592640  26.6420507
  68.5665512  99.4271564  21.5457058  68.8789988  98.9356899  20.7860518
  69.0992022  99.1069794  22.2737193  50.8282423  69.6517897  52.2027731
  50.0059462  69.7750044  51.7285585  50.7071066  68.8329935  52.6835299
  82.2661591  80.6623745  11.2817311  82.4048328  81.2473488  12.0265818
  81.6229916  81.1162949  10.7371879  20.8199716  82.4016762  56.0303545
  21.3619447  81.6777706  55.7165670  20.7224751  82.2387123  56.9685316
  38.1635356  61.6968250  32.2027302  38.3224559  60.8360624  32.5901055
  38.5546589  61.6429615  31.3307500  80.4999447  44.1642857   9.9724811
  79.8301554  44.0071201  10.6379938  81.2515545  43.6472607  10.2623284
  50.5787468  73.9132261  16.7656064  50.2713060  74.4903851  17.4646044
  51.5198660  74.0800905  16.7137766  66.5188360  95.0766277  50.7146740
  67.3401308  94.5849991  50.7116699  65.9714222  94.6245384  51.3566875
   4.0788084   8.1135118  39.0427756   3.9462659   7.9768318  39.9808502
   4.9356884   7.7266049  38.8630795  68.0358219 103.2352543  23.8337326
  67.6097441 102.5455093  23.3248663  68.9638138 103.0007553  23.8250971
  60.7779121 100.8573246  21.9068718  60.1217318 100.2996063  22.3247313
  60.2959156 101.6436958  21.6508842  33.5611010  36.6562676  37.5712204
  33.1403780  37.4652410  37.8624034  33.9842391  36.3101172  38.3569455
  30.3211260   0.0863295  31.6578746  30.7428694  -0.6130266  31.1586118
  30.2534533   0.8143537  31.0401106  14.3259835  93.0693722   9.2365652
  14.8734319  92.7422619   9.9503809  14.8581088  93.7454891   8.8171184
  80.8234596  90.9940434  27.2227764  80.5345154  91.4230442  26.4173555
  80.5443573  91.5848732  27.9222465  27.2720861  60.3732967  14.4443536
  26.8427086  59.7703218  13.8374865  28.1408739  60.5137300  14.0679026
  84.9848843  74.6072340  29.3772817  84.3385315  74.6237755  30.0831056
  85.3613186  75.4873085  29.3765616  54.7341585  11.7840385  38.3818054
  54.2265224  12.3057878  37.7602649  54.6369696  10.8830142  38.0736828
 102.5579739   3.8069668  19.9875712 101.6509438   4.0103894  19.7592211
 102.9713058   4.6614608  20.1109719  18.5734713  39.1825342  39.8105884
  18.3888245  40.1135254  39.6865225  18.8719785  39.1163588  40.7176447
 103.0159283 101.0440731   3.0716491 103.8626957 100.6045055   3.1491566
 102.5773907 100.5935764   2.3498639   3.9042646   3.5057321  59.9533939
   4.0149733   3.7795123  59.0428877   4.5674938   2.8276187  60.0819302
  97.9509544  96.7386818  32.1807909  97.3699760  96.9595814  31.4528513
  97.6231289  95.8988953  32.5025415  86.7237568  84.2885590   6.9929880
  87.5240135  83.7868690   7.1483141  86.0650063  83.8651848   7.5434744
  92.7804279   3.5966495  71.1213827  92.8421497   3.8822809  70.2098799
  93.0473614   2.6776060  71.1029816  79.6177483  95.1656818   8.7798399
  80.2644920  95.7759380   9.1341615  79.3152952  95.5798149   7.9716021
  84.5815849 103.9452457  15.1530802  83.9666557 103.4988117  15.7351315
  84.9776363 104.6246815  15.6987464  85.4740715  95.9088612  47.8983498
  85.5607891  96.2321091  47.0015621  85.6714058  96.6681480  48.4467649
  37.6441383  89.1266155  21.6738081  38.4206176  88.9748001  22.2125697
  37.1129870  88.3391094  21.7918849 105.0313854  82.6598740  62.0485926
 104.5839977  81.8309689  62.2188711 105.9487343  82.4843788  62.2581482
  99.9153233  13.4756219  26.6835904  99.6431637  12.7421725  27.2351480
  99.5574856  13.2712758  25.8196282  30.4724717   3.2785106  48.8041067
  31.2562203   2.9680696  48.3506823  29.7757864   2.6937938  48.5058308
 106.1746311   6.3261485   2.9099631 106.8223286   5.6241775   2.8470179
 106.3016129   6.8413466   2.1132970  77.6326561  43.1870222  27.2272706
  78.3920145  43.7175608  26.9861698  77.8476429  42.8407764  28.0933690
  98.3071613  10.2781689   1.5587880  98.4897232  10.7723105   2.3579931
  97.4983311  10.6615615   1.2196333   8.3419585  20.2338505  39.9019718
   8.8420379  19.5072687  39.5301795   8.3747643  20.9154463  39.2307162
  30.2913666  20.2381802  65.1517487  30.2328777  19.2867899  65.2393103
  30.7411265  20.5246615  65.9466553  77.4434948 104.2211723   0.9018793
  77.1869421 103.3443642   1.1875934  76.8817616 104.4013691   0.1480776
 110.7803345  18.2728910  34.0976262 110.8090973  17.4806082  34.6339965
 110.0052547  18.7426090  34.4055915  52.5214767 102.9303360  16.6626787
  52.3458719 103.8386250  16.4169109  52.0908499 102.4109459  15.9836888
  15.8726811   7.8864461   1.9922830  15.4420304   8.7321860   2.1167688
  16.7848003   8.1075126   1.8041381  89.5492649  26.0067987  61.6833687
  88.8030529  25.6950927  62.1954632  89.3115139  26.8994379  61.4325714
  75.3441191 100.8202839  14.9224484  74.4189310 100.6918240  15.1316321
  75.4914713 100.2798271  14.1462862  29.8032093  81.6124153  60.6587410
  30.1073027  82.4290276  60.2626276  30.5267596  81.3347340  61.2205267
 108.8292027  12.5336492  35.3309059 109.7278118  12.5257695  35.0012541
 108.7327671  13.3922160  35.7429671  28.4930539  46.2120819  77.2450352
  27.9346752  46.1192226  76.4731407  28.0489850  46.8662405  77.7845812
  87.0695972  92.1394825  38.7815547  87.7871513  91.5415287  38.5722542
  87.4654484  92.7981472  39.3522596  60.8107853 101.6843414  45.1389885
  60.3875446 102.5087452  44.8993015  61.7389154 101.9052601  45.2164507
 105.3007317   2.4939187  23.9151120 105.4021454   1.5835720  24.1929889
 105.7119751   2.5279424  23.0514288  50.8945513  93.5615921   2.4622028
  50.4695988  93.0184937   3.1260455  51.6651249  93.9195728   2.9029939
  92.7882099 100.4999352  18.3088481  93.1925106 101.2676525  17.9046428
  92.5569153 100.7880211  19.1918743  47.2303438  79.4314814  35.9537601
  47.4629831  78.5130453  35.8174229  46.5836382  79.6183109  35.2732468
  69.9763441 103.1779385  47.6426363  70.5645084 103.9190578  47.4976158
  69.1020966 103.5669994  47.6661253  72.3976994  78.9832735  68.1423759
  73.1335783  78.3999920  68.3281040  72.4129152  79.0927696  67.1915817
  48.4153175  99.7467041  24.1355920  47.8225470 100.4248619  24.4595575
  47.9019165  98.9399147  24.1774058  80.4467773  67.5484705  72.5151300
  79.7625589  68.1408167  72.2033501  80.2136326  67.3718405  73.4265423
 105.9059906   7.1284288  13.4590292 106.4205456   6.3294709  13.5736537
 105.8239269   7.4891776  14.3418407  87.8414631  25.9712672  20.4120016
  87.5211334  26.5643740  21.0915947  87.8200912  25.1056552  20.8200336
  28.2039428  12.8732646  10.7289946  27.5321984  12.2813773  11.0676086
  27.9322100  13.7406528  11.0290432 109.8747931 106.1954816  32.0633173
 110.7190428 106.1319058  32.5098968 109.2717944 105.7024986  32.6197243
  93.4249973  93.5503006  40.8727026  93.0588245  93.0056858  40.1758814
  92.6984787  93.6797142  41.4823341  83.0661297   2.6829121  46.1987114
  82.1732521   2.3803383  46.3644028  83.3461571   2.1914129  45.4265404
  92.6140793 102.7343224   0.2764401  93.3076484 103.2406424   0.6993279
  91.8818052 102.7706335   0.8918175  67.1632719 105.6299114  17.1423626
  67.4308634 105.2881718  17.9954994  66.4522028 106.2392235  17.3407364
  97.9609966 102.5471497  33.4312916  97.3217678 102.5149059  32.7195525
  98.2288456 101.6364288  33.5541081  89.8692608  91.2015343  18.0129957
  89.5569992  91.7558098  18.7281895  89.5670986  91.6423416  17.2188818
  85.8487511  89.2782784  33.1163144  84.9021816  89.2287254  33.2496500
  86.2111187  89.3572807  33.9987445  92.4507904  11.9333184  14.5542133
  92.6524258  12.4311972  15.3464842  92.0746708  12.5782990  13.9552462
   1.3903940  32.7600598  17.5858510   0.7921238  32.1360683  17.9968727
   2.1402153  32.7996016  18.1795144  16.0069919  68.9778376  37.4187160
  16.1588252  69.4875383  38.2145691  16.8636477  68.6090279  37.2034168
  64.1579962  74.3701982  31.1458921  63.6191988  75.0386858  30.7227421
  64.9852467  74.3894339  30.6647348   0.4944057   4.2877766  14.7916269
   1.3888273   4.6277913  14.8167670   0.1417892   4.4767851  15.6612062
  64.1969061  97.3919678  12.1478474  63.3479166  97.4712181  12.5827813
  64.8142338  97.8072262  12.7500939 104.0863323   3.4487283  29.0034556
 104.4435787   3.4746405  28.1157994 103.7208843   2.5681764  29.0889478
  92.8827763 101.7150497  38.6124825  93.6398888 101.4791203  38.0764318
  92.2884274 102.1570587  38.0061722  90.7356644  72.4420834  33.0906630
  91.1913013  71.9367599  32.4174094  89.8624897  72.5915384  32.7280760
  66.6133070  99.3816376   4.5860025  67.4171114  99.0763664   4.1653591
  66.6908884 100.3356934   4.5868835   5.4942018   5.3565276  20.3782773
   5.4195219   5.2952319  21.3305902   4.5890605   5.3899270  20.0687051
  10.7747650  98.9298248  52.7722597  11.5526259  98.5735798  53.2015133
  10.2943683  98.1593418  52.4692726 100.1160240  20.1142097  36.0858202
  99.7845268  19.3060637  35.6943583 100.6456375  20.5146408  35.3963256
  77.8102636  79.7276449  56.4035368  78.1002426  78.8171005  56.3482761
  77.5065660  79.9363232  55.5201054  11.5217245  43.1746960  90.8734894
  10.6499732  43.0687571  90.4926300  11.3903987  43.0434990  91.8125153
  76.5736723  90.2193356   6.1192012  77.2759390  90.3266335   6.7607152
  76.9983768  89.8099232   5.3653824  50.6588316  71.7150116  11.0272574
  50.3965569  71.2939501  10.2086282  50.4745817  72.6440096  10.8885145
  94.8848915  19.2408717  30.9698153  94.7998142  18.5769296  31.6540480
  95.2672482  19.9966717  31.4156842  67.4575758  86.6114330  43.8499022
  67.0158243  85.7648087  43.9156151  68.2610083  86.4252949  43.3640194
  66.5942383  73.6679459  59.4399452  67.4610758  73.8915443  59.1010857
  66.5809488  74.0342093  60.3242016  87.9835701  77.5426769  58.3252287
  88.3565712  78.2893658  57.8566694  87.2824478  77.9195070  58.8568878
  14.0262687   2.1414356  22.6506662  13.1592393   2.0841989  23.0521846
  14.2937779   3.0503413  22.7869034   2.6598278   1.8417549  49.6586418
   2.4672945   1.7323300  50.5898714   3.4292829   2.4107543  49.6384001
 110.3828716   3.7593168  50.5426979 109.6339321   4.3428308  50.6645250
 110.0673103   3.0876249  49.9381447  73.6863041 102.9859829  20.9672594
  74.4331074 102.3872566  20.9738660  72.9342175 102.4331284  21.1792922
  22.5684261  95.0546074  29.7731566  23.1472325  94.6743298  30.4339147
  22.5784707  95.9937572  29.9578953  44.8803234 103.6050892  30.3760195
  45.1870537 104.3038750  29.7982264  45.5191994 102.9016113  30.2611756
  97.3668480 105.1638603  39.1516781  96.6863441 105.8368683  39.1371202
  97.0309448 104.4712543  38.5827351 108.0224800  94.3476391  34.1568065
 107.9411411  93.6800194  34.8379064 108.9381218  94.2991829  33.8820577
  90.2134895  98.6810493  25.4093909  90.1798916  99.5792675  25.7384849
  90.3816795  98.7756062  24.4718385  55.9195662  94.0053844  54.4645452
  55.9018803  93.2616901  55.0669098  56.1501074  93.6225510  53.6180639
  35.2920032  58.8966990  83.2478714  35.4577303  59.0377808  82.3157501
  34.3381190  58.9103699  83.3263016  71.5166759  91.0063839  16.6199088
  72.3006344  90.7791901  17.1199334  70.8272600  90.4568100  16.9926012
 111.2182331   2.1894723  33.4492350 110.7658100   3.0275297  33.3533049
 110.6789970   1.5687123  32.9592228  10.7642257   5.2691644  41.8252707
  11.3269198   5.9861100  42.1178389  10.8072996   4.6266004  42.5334311
 109.5451641  45.7388449  60.0471735 109.7250462  46.3322878  60.7763529
 109.0492439  45.0204134  60.4398012  38.9115882  89.5779037  57.8223324
  39.5075107  89.0178585  57.3248768  39.2399168  89.5387363  58.7206078
 102.8850269  18.0890954  27.4315524 101.9592094  18.2943773  27.5617671
 103.3520412  18.7908852  27.8850007  96.2684155  83.6706448  24.0100336
  96.5147591  83.1437969  24.7702837  96.1623383  84.5565224  24.3567443
  15.2145946  19.7459888  57.5428724  15.3456414  18.9314198  57.0575571
  15.5058742  20.4320979  56.9423389  94.4017601  19.3449807  41.9403887
  93.5727787  19.2051899  42.3980904  94.7089100  20.1950622  42.2554302
  91.3655758  16.2772954   4.4989482  91.3569546  15.3710163   4.8068675
  91.3304520  16.2064886   3.5450169  53.1828213 103.0260849  46.3623714
  53.8567972 102.6318169  46.9160271  53.5860634 103.0802155  45.4959440
 106.7608547   3.7294024  34.9052668 106.3767052   3.4863654  35.7476401
 107.3116970   4.4868702  35.1028514  51.2160730  67.0444059  60.6101322
  51.1566114  67.8920650  61.0507822  52.1167660  66.7581844  60.7619858
  39.8541093  53.9806557  80.2168846  38.9019585  53.9356232  80.1296329
  40.0033855  54.0975475  81.1551189  99.3678474  31.6441655  15.2346611
  99.2775059  30.7479548  15.5585063 100.2869415  31.8628979  15.3884423
  38.1160831  75.1812553  17.1851540  37.4341416  75.8518934  17.1473229
  38.0888438  74.8625994  18.0873442  12.9409051   4.4437474  37.1623421
  12.9804623   5.0822008  37.8744125  13.3143044   3.6452937  37.5355411
  15.0674619   0.1058835   2.0084155  14.9633874   0.8412809   1.4046016
  15.9895792  -0.1389437   1.9309886   7.8189611  11.0980606  26.3744855
   7.4377966  11.3737941  27.2081041   7.1662378  11.3449800  25.7193422
  56.1203957  77.3719120  42.7841043  55.5769777  76.5850163  42.8256369
  56.9252062  77.0847034  42.3528051  91.8326092  62.3831463  34.5302033
  90.9218502  62.6146746  34.7122598  91.8785667  62.3240805  33.5759330
  92.6743698  73.9550686  46.9567490  93.2445621  74.5577621  47.4341059
  92.9415703  74.0462875  46.0421371   1.6314796  23.6514735  26.0150766
   1.1185499  24.2694330  26.5359020   2.4791405  23.6108828  26.4578581
  62.1102810 103.2027626  25.7872343  62.0715427 103.7496758  25.0026250
  61.9075108 102.3210049  25.4748082  19.8833525  95.7039356  11.5241241
  20.5561137  95.9513283  10.8897567  20.1921821  96.0664940  12.3544335
  81.4705181  68.8994360  54.4938993  82.0487118  68.5590649  53.8112068
  81.9961452  69.5595741  54.9457550  72.8705502  74.7742033  28.3163881
  72.2007084  74.9297857  27.6505518  73.6337519  75.2620316  28.0069065
  75.4219675  97.6942158  22.5595093  75.9943295  98.0838203  23.2204533
  76.0151243  97.4226952  21.8590307   5.7749903   5.9076285  14.5216906
   4.8256883   5.9745210  14.6245658   6.0498202   5.3104937  15.2174866
  74.7999096  28.4999919  19.8755157  74.2791748  29.2136860  20.2439046
  74.5640135  28.4854269  18.9479530 108.9687634  17.3161280  54.2287779
 109.5395947  17.6405632  53.5322618 109.3397045  17.6813483  55.0320530
 102.4457169  40.7784605  88.7833309 102.0376873  40.8595991  89.6453953
 102.1553612  41.5561533  88.3067608 101.9546795 104.1448212  64.1931581
 102.5022984 104.9061298  64.0014458 101.2614441 104.1763115  63.5338688
  95.3242683  73.2292747  49.5255804  96.2165928  73.3440542  49.1987562
  94.8933315  74.0644217  49.3437815  95.0079441   4.0217179  11.6702354
  95.2301407   4.9385637  11.8322647  95.1859856   3.5816252  12.5014079
  98.7233734   2.5023016  22.9002261  97.9333687   1.9621354  22.8815413
  98.4214592   3.3767781  22.6545191  20.8261085  89.8425484  43.3430052
  20.1551914  90.2913666  43.8574600  21.6151667  89.8928261  43.8825369
  98.4250450  87.9764271  29.3884492  97.4685764  87.9416084  29.4021463
  98.6996555  87.2228718  29.9109268  72.9287529  83.9932442   6.2785065
  73.5576773  83.5019875   6.8070441  72.1753073  84.1165161   6.8558753
   1.6001835   9.1578257  56.2076235   2.4011491   8.9843309  56.7021799
   1.3910460   8.3224559  55.7897139  46.2565851  95.7909298  50.8078861
  46.8632174  95.3408432  51.3958120  45.3893566  95.5938148  51.1618662
  14.7776341   2.7397355  37.7764916  14.4487345   1.9251701  37.3963070
  14.9836779   2.5145563  38.6837244  33.5085392  48.3422613  76.7766285
  32.8419995  48.7424707  76.2182426  33.5391235  47.4278450  76.4953089
  87.5838947  74.1615915   9.5894760  87.9714489  74.0394354  10.4561400
  87.2922325  75.0732565   9.5838684  50.9850645 102.1581841  20.8523798
  50.6658792 102.9829979  20.4862785  50.5765867 102.1056747  21.7164516
  63.8421242 105.4178794  18.0737591  63.9334957 105.0660135  18.9592373
  63.5431950 104.6743685  17.5502431 106.6583252  63.4313679   6.9722879
 106.9331932  63.8962412   6.1819899 107.2588921  62.6886082   7.0343566
  97.0993137  28.8489413  58.1921482  97.7493095  28.2010794  57.9201031
  97.5664997  29.6838713  58.1627846  75.9170437  69.1771126  19.7005355
  76.6977072  68.9678383  19.1876972  75.4693079  69.8521519  19.1905499
  65.1432848  84.0063572  47.2279119  65.9699869  83.7236500  46.8369246
  64.9159575  83.3062649  47.8398132  63.4291124  87.2828197  35.4872251
  64.3221235  87.3289299  35.1457143  63.5371828  87.2598171  36.4380264
  46.4937258  55.5666780  22.4245214  46.8417549  55.9310150  23.2383800
  46.5585566  56.2839460  21.7940044  89.3533134  94.2090034  51.7627525
  90.1348877  94.4231129  52.2721958  89.6895313  93.9578152  50.9024715
  42.0847607  96.2707043  19.6324396  42.4813890  96.8241215  18.9596486
  42.2600555  95.3760815  19.3406510 102.8016949  13.5522819  26.2448645
 102.8543568  14.3662846  25.7440066 101.8715286  13.3265007  26.2378502
  98.6570263  25.3139687  12.9646480  99.5111370  25.1573205  12.5619316
  98.4234333  26.2016582  12.6932192  69.1628981  90.1581287  17.5288129
  68.9941788  89.3939304  18.0799592  68.4952259  90.7929134  17.7886260
   1.1663067   6.4095938  22.4182749   1.2125279   5.4544532  22.3758364
   2.0703053   6.6988707  22.2944307  82.1158123  86.5083981  15.5858600
  82.0961666  86.0072231  16.4011347  82.6136303  85.9599781  14.9795222
 102.2669315   0.0354132  22.6914310 102.1396065  -0.5893601  21.9775128
 102.7656651   0.7510734  22.2973156  28.4864473  82.1966076  89.1862774
  28.1722832  82.9374886  89.7045803  28.0406737  81.4365482  89.5602131
  72.8211021  67.2828150  65.3009892  73.0035639  66.5568638  65.8975935
  73.2500410  68.0376625  65.7040358  64.2786121  65.9919930  61.6268253
  63.6230564  65.3387785  61.8713379  63.8563871  66.5102577  60.9417248
 111.4042416  43.0708551  36.1628985 110.8774045  42.3818731  35.7579541
 112.2987734  42.7307272  36.1439538  77.9620695 104.3732071  54.3252039
  78.5208130 104.8555565  54.9346066  77.5433874 105.0518608  53.7957048
  96.9734764  99.6668243  21.2705612  97.5233650  98.9286518  21.5331626
  97.5435448 100.2076054  20.7239270  96.9673920   4.8628548  36.4939976
  96.5567207   4.0045837  36.5986753  96.7788887   5.1097411  35.5885983
  43.4702778  67.7542162  89.7900963  43.2484007  68.1645107  88.9542389
  43.6312199  66.8364000  89.5711327 103.3144569   6.0076451  13.6192572
 104.2097092   6.3375199  13.6962891 102.7689934   6.7105621  13.9722610
  67.1252966  85.4735184  31.7427731  67.1345377  85.3019238  30.8011246
  67.8607798  86.0694313  31.8848658   9.7719675  97.0958233  60.9579086
   9.4403213  97.8847790  61.3866186   9.0192801  96.5052509  60.9277058
  13.2043540  38.6323929  87.3959827  13.0706120  38.1112218  86.6043282
  12.5184655  39.2992234  87.3624611 104.5355129 103.8992786  50.5721903
 104.5114708 104.8322296  50.3594637 104.3582535 103.8632965  51.5121460
  85.4992771  77.5688553  23.5200238  85.6868362  77.8894186  22.6378155
  85.2192783  78.3464432  24.0029168  86.4509010  86.7917538  79.7313833
  85.6645870  86.2615585  79.6016455  86.7226315  87.0375538  78.8470888
  48.7146950  75.9124088  10.7576144  49.5896149  75.5432081  10.6374598
  48.1844091  75.1768970  11.0642958  85.2448463  61.6163111  45.2574539
  85.2973175  60.9684134  45.9600973  86.1467457  61.9139814  45.1382971
  47.0282078  81.7798710  78.2670832  46.7278957  81.8249702  77.3593330
  46.8670130  82.6563072  78.6165190   0.2574808   4.9634302  79.3970251
  -0.5837172   5.4106212  79.3040800   0.8504087   5.4464638  78.8213968
  96.1315632   1.6246346  22.5956488  95.7266426   0.8335305  22.2400880
  95.5092812   2.3234957  22.3941779  65.3232813  82.6377296   3.9210844
  65.5914879  83.5342407   3.7196869  64.3666363  82.6638794   3.9018485
 101.8364525  18.2786679  19.2542088 102.4439621  18.9256489  19.6127915
 102.1509266  18.1225622  18.3637238  70.4717636  75.4297447  39.3901277
  71.1379719  75.7961559  39.9716282  70.8664370  75.4689980  38.5189676
  81.7582703  64.3591309  39.9822760  82.2580814  64.9579382  39.4274306
  82.2175121  64.3710613  40.8220339  99.9339008  23.1271338  65.0117445
  99.4318008  22.7783799  64.2751932  99.5860672  22.6691985  65.7769489
  57.2200012 101.9104862  23.1996131  56.4201784 101.5304756  22.8361440
  57.6165867 102.3805904  22.4661660  93.4420300   2.1952237   8.0742979
  93.0832195   2.6708034   8.8235039  92.6780605   1.9790095   7.5396597
  82.2962761  94.7227573  66.6578341  82.3028660  93.8744068  67.1011114
  82.4287415  95.3605175  67.3592186  80.3889751 101.8488789  20.6493855
  79.9886417 102.3616505  21.3515472  79.7109604 101.7946720  19.9758959
  17.2260833  27.3003674  37.1918988  17.1901608  26.3697600  36.9707346
  18.0368090  27.3966765  37.6915789  70.0146627  75.6765032  21.9597697
  70.1710606  74.9459505  22.5581598  69.1990948  75.4497290  21.5129423
  48.8537169  95.7648563  12.2013283  48.5217905  95.0886345  11.6107440
  48.5646534  96.5886116  11.8087840  36.8307328  77.9722357  90.8205795
  36.8793678  77.7919960  91.7594051  35.9221435  78.2352924  90.6739521
  84.3260670  25.5666113  90.7599926  85.2417946  25.3140354  90.6421757
  84.2988682  25.9712768  91.6270161  63.9562845  86.0283947  50.4351425
  63.1583548  86.2239933  49.9439383  63.7577295  85.2160931  50.9009504
  83.3560944 104.9449253  28.1335425  83.4217739 103.9981937  28.0085897
  83.6618328 105.3174496  27.3065138  50.2597094 102.2468376  33.0028915
  50.3919744 101.7071819  33.7823176  50.7906675 101.8255806  32.3269796
  93.7205219  93.2612038  29.1419101  93.8463879  92.5300503  29.7467279
  92.7995396  93.2054615  28.8871121 104.5773220  51.1371231  16.5782034
 104.9140644  50.2680874  16.3600206 105.3584385  51.6542387  16.7748725
  94.8420620  89.5380783  21.1507058  94.7747612  90.0668335  20.3556418
  94.8189545  90.1751709  21.8647122  14.5282054   8.0012280  45.4157352
  14.2309725   8.8308293  45.7894278  15.4794836   8.0912060  45.3591204
  86.6079426  54.3645525  14.9036109  87.3488426  54.1069317  14.3550456
  86.8954182  55.1714087  15.3308964  67.1345711  83.6448002  27.9116321
  67.4481392  84.4773579  28.2648301  66.6625977  83.8854027  27.1143985
   4.3065783  52.8845406  64.5615435   4.0774098  53.8040447  64.4265366
   4.5437902  52.5664377  63.6904669   2.1966368   5.3884083  31.5166545
   3.1236827   5.5855358  31.3826466   2.0205963   5.6646955  32.4160480
  75.3653049  69.7485733  30.2200580  76.2594175  70.0270176  30.4182029
  74.8322058  70.5289316  30.3719568  54.9489546  98.6062527  54.2857265
  55.0110054  98.9961815  53.4137535  55.8369827  98.6649990  54.6381140
  64.9067068  67.2575235  68.9519167  65.7974815  66.9487286  68.7863874
  64.7060490  67.8215075  68.2049990  80.8589077  79.0468073  40.1257849
  81.4516068  78.5106707  39.5990014  80.9420300  79.9269295  39.7587609
  12.4783301   6.4286876  32.8701043  12.0937502   7.1114004  33.4198618
  12.4751377   5.6466401  33.4220314  95.0875282  43.8832188   4.3358827
  94.3017673  44.2719316   3.9515474  95.8087444  44.2361116   3.8147876
 110.5240726  94.8557091  31.4105177 110.8360100  94.2091370  30.7773709
 110.7158375  94.4670582  32.2639847   7.3064715  28.1482673  42.5964165
   7.1201849  29.0794158  42.4760342   7.1985978  28.0019712  43.5362005
  71.1728334  87.6006699  81.8983555  72.0795536  87.6379395  81.5938950
  70.6713820  88.0404949  81.2118244 111.6693115 100.4184628  65.3532553
 111.5433788 100.6697750  66.2682486 110.8673763  99.9503326  65.1209021
  90.6855965  11.6215265  23.4067702  90.5687904  12.5579107  23.2462382
  90.4194355  11.2031245  22.5880337  18.6152089  23.5474873  21.9930768
  19.3556559  23.7058282  22.5786519  18.4323895  22.6124716  22.0855641
   7.0325130  25.5626273   6.8456030   6.0764849  25.5927372   6.8090570
   7.2307718  24.7079682   7.2283357  79.4775438  98.6650848  29.6124601
  80.3214550  98.2133865  29.6087837  79.6928501  99.5765114  29.4145298
 109.6592999 101.2785435  24.1748047 109.9372673 100.4566479  23.7705278
 109.5651150 101.8863869  23.4413886  82.1714878  81.1825275  39.2027307
  83.0113506  81.1609650  38.7440348  81.7189026  81.9430923  38.8381195
 110.8516407  86.1746979  71.2746334 110.5876160  85.3086281  71.5852070
 111.6041851  86.4053345  71.8193436 106.7450714 103.3895016  41.4555407
 107.4502182 103.0339146  41.9964218 106.3861084 102.6284218  40.9993124
  91.9298935  36.5842915  29.6874857  91.3985825  36.8103886  28.9240551
  92.1309185  35.6554914  29.5728111 106.6483116  24.2675853  26.1297393
 107.4781704  24.0779662  26.5674734 106.8732834  24.3164349  25.2006388
  49.8502159  89.4385242  23.6840200  50.3385782  88.7730312  23.1993985
  50.1082659  89.3079185  24.5964813  86.3681889  -0.0568328   4.5664832
  85.8867550   0.4087343   5.2503681  86.4823818   0.5906738   3.8708338
  24.5645547  23.9853954  10.5551791  24.9758792  24.4258928  11.2988234
  24.1068816  24.6833825  10.0865829 104.7331905  32.9462337  15.8251226
 105.5121326  32.6216245  15.3733289 104.3981743  33.6396980  15.2567077
 102.2045422  28.4298968  37.7816176 103.1481743  28.5230899  37.9123521
 101.9993305  29.0406752  37.0737529   2.9600191   7.8259283   5.7988650
   2.2101021   8.2594126   6.2062311   2.6111436   6.9938326   5.4792804
  96.0830021 105.2830315  63.2429266  96.7660713 105.1113033  63.8911200
  95.5429649 104.4927406  63.2489491   9.7470689   9.0172708  32.2280693
  10.6593835   8.9533621  31.9455290   9.3040800   9.4656384  31.5076828
   1.1151296  12.7815187  28.2067752   1.0944826  13.5093665  27.5854516
   0.2617151  12.3591244  28.1093097  30.8604598  87.4866009  37.4714947
  31.6632628  86.9656181  37.4895477  31.1260033  88.3225727  37.0882678
  96.3052654   6.3250488  11.4934778  96.7456055   7.1745706  11.5189540
  96.7109203   5.8669913  10.7573640  77.4788427  99.4833946  19.9207771
  78.2963181  99.4632626  19.4232225  77.6831722  99.0249157  20.7358098
  92.7341366  78.2100868  63.9895248  93.1188965  77.5461483  64.5616913
  93.1141663  78.0339098  63.1288433 106.8946075   6.7163163  52.1749401
 106.3011360   6.2542969  52.7670193 106.3738918   7.4429691  51.8328047
  33.7494540  92.4480724  33.2013941  33.6675978  91.7102242  32.5971508
  33.1842780  93.1255341  32.8301191 101.1484241  13.5918331   2.5459787
 101.6240883  13.4583640   1.7261270 100.4286194  12.9618657   2.5105500
  77.2454507  -0.1202231  18.1341612  77.3672540  -0.2339583  19.0767431
  77.3872550   0.8146543  17.9854143  95.2955818  91.6197681  22.8618813
  95.7374763  92.4641609  22.9510856  94.7314072  91.5620422  23.6329889
  75.0790405  81.1260414  57.1863174  74.7278595  80.9073448  58.0494976
  75.9853935  80.8192635  57.2117424  84.4681644  77.7338266  31.9495606
  84.4128609  78.0805349  31.0590744  83.8335896  78.2494879  32.4471998
  52.2882938 101.2775326  54.4949961  51.4391184 100.9848881  54.1640997
  52.2138214 102.2309589  54.5357561  16.4471650  15.2470374  60.5803680
  15.7955146  15.4237974  61.2588501  16.0070026  15.4727829  59.7608995
  30.4809642  14.1646421  23.6507726  30.7724404  14.8702765  23.0734038
  31.1296272  14.1475737  24.3544579 107.3758125   5.6035024  29.3789601
 106.5274429   5.3279072  29.7261786 108.0166435   5.2023047  29.9659920
  89.1141033  84.9512196  13.3073211  88.3860683  84.5286083  12.8516793
  88.7090874  85.6730652  13.7880957  68.7694263  17.9607821  20.7525420
  69.4858170  17.3315549  20.8367634  68.6279821  18.0377996  19.8089874
  31.3573289  55.9330463  42.3655462  32.0981097  55.3302479  42.3014545
  30.7857394  55.5407715  43.0255795  94.1519737  89.1772270  44.6994257
  94.5930958  89.8725605  44.2114115  94.8535633  88.5733032  44.9428892
 102.1044827  52.5566578  72.6769781 101.6105938  51.8570137  73.1045341
 101.9558525  53.3255816  73.2273388  53.3288574  99.8311806  35.3040504
  53.2142544  99.4909191  36.1913610  52.5954056  99.4644356  34.8103070
  83.9603424  99.4882965   7.2383624  84.0394592  99.5298767   8.1913799
  84.4844341 100.2242184   6.9221753  15.1518595  87.9548550  84.4244671
  15.6213534  87.9555130  85.2586174  15.5232453  88.6921501  83.9400005
   8.7249422  61.3626766  52.6106119   8.7437600  60.4285622  52.4025059
   9.1442299  61.4253664  53.4688091 104.0253067  12.3179615  36.6815686
 104.7148418  12.7469790  36.1748958 104.3337822  11.4186323  36.7923737
   8.6915451   7.2157645  17.6381969   8.5777026   6.8007040  18.4931803
   8.1212294   7.9839694  17.6670444 110.2536201   8.9749563  32.8704810
 109.9703407   8.2400501  33.4144473 110.1537037   8.6603779  31.9719887
  38.4193397  85.9914780  24.7765708  37.8574347  86.7345905  24.5568275
  38.6106586  85.5786133  23.9344501  77.1226597  99.7863483  30.8033037
  77.8579569  99.3455219  30.3775668  77.5086832 100.2098083  31.5700483
  12.7909446   4.9824309  39.9018621  11.9749653   4.7837007  40.3611183
  13.4785640   4.6632281  40.4862595 109.9308300  31.0624933  17.1773767
 110.4662514  30.3733516  16.7841291 109.1047764  30.6299663  17.3936474
  27.9171562   9.5294327  63.1077862  28.4417892   8.7494153  63.2882452
  27.0129752   9.2152846  63.1081295  86.9957829 102.0843410  64.1389132
  87.9061413 102.3801041  64.1371250  86.9683170 101.3977432  64.8052931
  84.2868233  67.7115726  80.9968376  84.3862534  67.1391821  80.2361012
  85.1605511  67.7463913  81.3862133  42.4126863  47.0154095  44.4310808
  42.8542662  46.4257717  45.0422812  41.8463182  46.4433050  43.9132452
  23.8716269   2.0597519  52.1764851  24.0646291   1.1547280  51.9317102
  24.6667147   2.5432724  51.9522667   4.9738926  18.6162400  37.8605723
   5.4754055  17.8735554  38.1969285   5.5915737  19.0896261  37.3032498
 107.4563789   0.4756234   1.1026233 107.6420784  -0.4613850   1.0412733
 106.5855503   0.5729400   0.7173657  85.8753381 106.3293982  10.0800633
  85.5931280 105.9312517   9.2566144  86.0699401 105.5862481  10.6511068
   2.6515952 102.2044277  27.2556305   2.4945818 101.7183876  26.4460969
   3.1216002 102.9900169  26.9760132  41.7279959  46.8743610   8.7528169
  41.7143106  47.6122713   9.3623519  41.9282818  47.2686243   7.9038918
 103.5069942  36.7110682  30.1166344 103.4937286  35.7718372  30.3007483
 103.2436275  36.7789793  29.1988850  50.6420088  12.2574735  19.1934919
  50.6257677  13.0060637  19.7897971  50.5179548  12.6403320  18.3250093
  28.5718131  27.5120473   8.8636601  28.9626122  26.6826344   9.1385859
  27.8228951  27.2569919   8.3248627  45.9641361   2.4784498  23.8538718
  45.3062963   2.5635114  23.1637692  45.7363415   1.6643703  24.3028879
  50.2379560   8.0816454   5.6834263  51.0768270   8.2599586   6.1085451
  49.7924566   8.9287132   5.6679296 111.8468571  32.5858927  69.7040081
 111.8591213  33.3869529  69.1801929 111.8561459  31.8781686  69.0595913
  18.9708054  11.9600713  65.8745909  19.6623778  11.7199099  66.4912605
  19.3976438  12.5510693  65.2543020  29.8043585   8.8783878  36.6209626
  30.5513406   8.4628314  37.0517325  29.0710640   8.7311840  37.2183251
 103.9744854 103.1252670  29.0158033 103.2520485 102.5126457  29.1536570
 103.5613441 103.9886761  29.0246367  34.2195296  59.1755867  16.4227784
  34.8906159  59.7992945  16.1455452  33.9572668  58.7317181  15.6162846
  61.1119223  39.6882415  36.0004902  60.8430386  39.6045232  36.9153261
  60.5840874  39.0391898  35.5353522 109.6664429  99.7321606  63.1159878
 110.3905773  99.3985939  62.5862789 109.5392704 100.6300163  62.8095484
  15.0377285  34.9683785  33.2968068  15.5112958  34.3806076  33.8854432
  14.7305703  35.6771064  33.8621283  41.5886641  38.0961323   3.1318456
  41.1427975  37.5131083   3.7462708  41.8994617  38.8219523   3.6729753
  52.0562172  11.9908357  57.7509260  51.1794519  12.0903885  57.3799753
  51.9700670  11.2749434  58.3804560  33.0849338  16.5075755  36.7105246
  33.5690427  15.8960247  36.1556578  32.7332377  15.9642196  37.4157238
  38.2915878  13.5920358  25.0943255  38.2476687  13.9689302  25.9731054
  39.1402817  13.1503260  25.0652981  63.0149841   6.1235535  29.3486857
  63.8699007   6.4450049  29.0622950  62.3845959   6.6351986  28.8416767
  28.4105802  38.2883382  31.2798929  29.2525482  38.6872220  31.4994645
  28.2112622  37.7233624  32.0264220   9.8820812  56.8155718  17.9107606
  10.0391555  56.0746956  17.3253906   9.5968163  57.5222063  17.3315132
  56.3373566  16.1270261  37.9900217  56.5553474  16.5177536  37.1438265
  56.7930460  15.2852535  37.9896569  98.9879990  91.5424061  87.2570419
  99.6044731  91.3969517  87.9747105  98.1253433  91.4243507  87.6546764
  66.9725323  93.3868122  85.7582951  67.6208305  94.0854073  85.6693459
  66.1289787  93.8386631  85.7363224   0.8076040  87.6939106  33.7789917
   1.2889871  86.8757629  33.6560011   1.2311392  88.3127594  33.1841111
  17.4872339  54.8626804  14.5607209  17.8818703  55.6676245  14.2252231
  17.1366620  54.4261456  13.7843406  27.7754092  41.6799641   4.2866471
  27.5672793  42.6075840   4.1751343  26.9294429  41.2359619   4.2280337
  30.9988213   5.2914995  33.2193851  31.3276052   4.6267366  32.6142192
  31.6322660   6.0064077  33.1570601  39.8797250  89.5800304  86.2677097
  39.9728203  90.1973057  86.9933414  39.0622735  89.8348713  85.8398533
  38.9954662  29.6520972  26.4987993  38.2532263  29.9525380  27.0232487
  39.3872976  30.4553533  26.1560440 110.6271744  26.1532164  24.4954944
 111.0859108  25.9544349  23.6792374 110.9198093  27.0349288  24.7261047
   5.7904333   5.6065303  44.5425892   4.8949602   5.8764315  44.3388367
   5.8540237   4.7131452  44.2048740  77.0876503  41.7013836  89.8476601
  76.7309093  42.0520067  90.6637669  76.4255476  41.9087553  89.1882229
  26.6270566  55.1014853  26.4013553  27.1479774  55.9040689  26.4283705
  26.8263793  54.6586943  27.2262430  14.2612922  29.0792632  40.7437563
  13.4701264  28.8884187  41.2476110  14.7237384  29.7364640  41.2638140
   2.5502181  12.4424314  11.9300747   2.6304632  13.3012629  12.3450470
   3.2209069  11.9076109  12.3547792  36.0523200  55.4526186   5.4955935
  35.1908755  55.0663280   5.3377181  36.5244246  55.3298950   4.6720105
  34.1939831  11.7742157  34.4816661  34.7464609  10.9975553  34.5699811
  33.3138895  11.4682794  34.7009110  16.6889250  55.3040171  24.4590831
  17.0877981  54.4637871  24.6852231  17.4292386  55.9040546  24.3689609
  80.6167030  84.1855431  88.6337757  80.4376984  84.9610901  89.1654968
  80.4647827  84.4722748  87.7332497  19.4690073  34.1438770  16.0892344
  19.5770621  33.6253071  15.2919626  19.9462712  33.6548615  16.7595446
  29.4409513  55.4390764  44.6476603  30.2598476  55.6947565  45.0722361
  28.8575172  56.1856794  44.7833633 101.7905045 103.9876270   6.9182473
 102.0844841 103.5432434   7.7134365 102.4808216 103.8146973   6.2780905
  32.9743242  23.3403206   4.7906506  32.0944738  23.0804658   4.5175758
  33.3333755  23.8027048   4.0333414   8.6666662  24.0161562   1.1013188
   8.6372465  24.2525673   0.1742399   8.8931662  23.0861449   1.1042643
  45.1390362  12.2389972  47.0090723  45.5639505  11.4159536  46.7676592
  45.8294296  12.8972483  46.9297457  15.4923260  30.2458668  31.2058663
  15.2747869  31.0574889  30.7474136  16.2431002  30.4742265  31.7539740
  35.7538319  25.3465152   5.4843479  35.4466033  25.5165243   6.3748205
  34.9538970  25.2896571   4.9617544  11.5476394  89.0147972  51.5175200
  12.2120476  89.0243721  52.2065067  11.9655442  88.5569859  50.7881355
  29.6979880  32.5783110  43.9148283  29.4809008  32.6646304  42.9865789
  30.5390453  33.0259800  44.0067482  22.6938319  33.4907079   5.6114167
  22.2390914  34.3137169   5.4322445  22.7242613  33.4369087   6.5666187
  65.5825186  18.8618493  10.9541714  65.5181932  18.2644987  10.2090085
  65.4767895  18.2996619  11.7216337  85.6089211  38.7908196  30.2034068
  85.6023121  37.8353930  30.1455379  85.0596142  39.0787411  29.4743085
  45.3628063  11.4761806  32.3948383  46.1577702  11.4448690  31.8625951
  45.6449699  11.1907208  33.2638192  23.3752751  28.4088802  28.8334489
  23.9189839  28.1092834  29.5620441  22.5540257  28.6805034  29.2433286
  44.9548006  11.8412173  35.4516339  44.0381670  11.5720272  35.3920960
  44.9694252  12.4868309  36.1581755  14.3259192  17.3118067  17.5192070
  13.3762944  17.2059262  17.5760925  14.4835019  18.2137334  17.7983606
  64.5438337  80.3730202  84.8961067  64.7046947  81.1510658  84.3622589
  64.7768021  79.6396017  84.3268490   4.1416553  25.4084754   7.4643582
   3.5321754  25.1657653   8.1613934   3.9573511  26.3325644   7.2960675
  89.5737839   3.5063109  33.7394238  90.0505733   3.8133386  32.9682970
  88.6530876   3.5359493  33.4792638  11.0843301 100.2978134  40.7740211
  11.8349516  99.7647095  40.5121088  11.3505769 101.1969948  40.5821705
  98.8343906   7.8130412   2.4596043  99.5132065   7.9326367   3.1237859
  98.5379314   8.7004793   2.2576264 105.3414822   7.4976760  16.2633181
 105.6819439   8.3850473  16.3768637 105.1074505   7.2159481  17.1476758
  33.8549185  28.1288981  21.8617201  34.7483706  28.2770348  22.1716070
  33.9585972  27.5759459  21.0873008 103.0841160 102.8207016  11.9903874
 102.4673557 102.9377174  12.7129769 103.0739689 101.8794060  11.8168879
  25.7989645  17.4419391   9.0124106  25.2850699  17.0538199   8.3042371
  25.9372115  18.3487368   8.7388468   5.1098114  36.3853073  11.2347889
   4.3670920  36.7932606  11.6799569   5.0988370  36.7630291  10.3553367
  90.6531906 105.2447605  40.9754086  91.1034775 104.7057056  41.6257095
  89.7742271 104.8697376  40.9206057  63.1833124  66.5749979  88.9501572
  62.7821350  66.5504217  89.8188877  63.5819006  67.4435043  88.8948917
  21.2814116   9.9036962  22.4050879  20.8608341   9.3639874  21.7357159
  20.5883074  10.0793087  23.0414820  64.2098856  94.4147205  81.6214752
  64.6019363  94.4234562  80.7482910  64.4214439  93.5488319  81.9703579
  57.3177767  28.2663512   3.3174363  57.6395988  27.6918316   2.6227492
  57.5420094  29.1486573   3.0216485   5.7320279  61.2497473  30.0702214
   5.9155035  60.6408596  29.3548012   5.6998885  60.6981802  30.8518696
  57.1771717  17.4476910  64.3005562  56.9943619  18.3397532  64.0055370
  56.8567419  17.4232101  65.2021933  45.7937717  21.6581893   2.5840846
  45.7480097  22.4477673   3.1232548  46.6639090  21.6897821   2.1864666
  73.2062864  91.5545559  82.1501541  73.9713526  91.1604404  81.7311382
  73.1979847  92.4575710  81.8327808  32.7833843  67.5497723  39.2050934
  33.0157447  67.6530790  40.1278973  33.5555649  67.1476793  38.8072348
 101.5432072  70.6912327  87.0909786 101.5172100  70.2769899  86.2284470
 102.2057533  70.1973343  87.5740147  23.6661983  31.6837001  38.7618184
  23.6203146  32.3193383  39.4760275  22.7967262  31.2839413  38.7407422
 100.4325771 100.9780884  85.7502842 100.8387184 100.3061485  86.2978077
 101.1632824 101.5232754  85.4586220  12.6862359  21.5220451  29.0830851
  13.1465566  21.4258742  29.9168038  13.1211722  22.2582412  28.6528802
  48.2556772  75.4944420  90.4475975  47.6930141  75.0360060  89.8235130
  48.8515997  76.0068941  89.9012470  50.5207396  28.4831262  40.5111599
  51.0840654  27.7280951  40.3413868  49.7981691  28.1308246  41.0307789
  23.1570435  31.1714578  18.2375705  24.0246940  31.4838767  17.9810369
  23.1231070  30.2697158  17.9182887  42.3958588  31.2937450  22.3490000
  42.2774410  31.2140417  21.4025021  43.1999111  31.8036389  22.4476838
  59.8196936  17.2270370  13.7756121  60.5228424  16.6697741  14.1091847
  59.0772724  16.6336310  13.6619532  85.8352184  25.4124737  14.3052292
  85.1109314  26.0090876  14.4941509  86.0018063  25.5267143  13.3695841
  34.9247551  42.7008915  15.7491708  34.5772314  41.8160629  15.8611655
  34.9003291  43.0807495  16.6274321  49.4562721  51.1700773  22.5825405
  48.8192940  51.7916250  22.2301602  49.8939371  51.6488266  23.2864428
  57.9948997  11.3589072   5.9348309  58.8168716  11.0658455   5.5414957
  57.3475313  10.7169938   5.6431293   1.5222375  95.6556702   8.3876979
   0.8523909  95.8288479   9.0491712   1.7780539  96.5227604   8.0731511
  36.9966888  23.8399076  13.3351076  37.1847916  23.0653048  13.8650525
  37.8493309  24.1092038  12.9934740  15.6114817  59.9053478  10.3058505
  15.3989267  60.6411028  10.8800602  15.9843016  59.2453194  10.8903146
  50.3280115  44.3220949  14.8621964  51.1123085  44.8701143  14.8342776
  49.6009254  44.9446201  14.8682523  50.4350281  13.4550190  25.9616280
  50.6728268  14.2627084  25.5063009  50.2966118  12.8172016  25.2614403
  89.5338726  89.0273094  59.8738050  89.6332359  88.5495663  59.0503263
  90.3649807  88.8943100  60.3296566   8.2941383  12.5062883  78.4683180
   7.9832762  13.4016585  78.6021423   7.4989802  11.9981539  78.3078337
  47.7354813  27.9647446   9.2425793  47.0766592  27.8294945   8.5614824
  48.5352755  27.5824475   8.8814616  67.3791790   8.2381618  63.2790756
  67.1621180   7.8286803  62.4415541  66.7748499   8.9772522  63.3480835
  70.7967901  29.3834519  18.7288320  71.0261631  30.2399945  18.3683431
  70.2816200  28.9637804  18.0398417  52.7857447  21.9996595  46.8664598
  52.5308657  21.5877509  46.0408688  52.9644489  22.9109287  46.6343260
  21.7596912  18.9502656   6.1365008  22.3371220  18.8272679   6.8899453
  22.3195004  19.3443596   5.4675210  23.7674332  58.2990026  19.7663462
  24.3957734  58.6696529  20.3860545  23.3074069  57.6246309  20.2661800
  98.5880756  13.1125164  54.9871254  99.5444393  13.1518734  54.9807262
  98.3528996  12.8569663  54.0951490  11.3926983  41.7683315  34.5457792
  11.5343940  41.1634636  35.2739882  12.2426367  41.8200922  34.1085649
  51.7499876  42.9498959  21.2379527  52.4052000  43.2121134  21.8846154
  51.6865921  41.9995403  21.3330197  13.2210302  11.7056823  11.5367782
  12.4412370  12.2570288  11.4722049  13.4142125  11.6728199  12.4737048
  24.3221617  75.5512714  39.2581344  24.2634463  76.3683271  38.7629557
  24.3686652  74.8684502  38.5889363  29.0751553  43.5034466  15.0782955
  29.5113420  43.0545139  14.3541157  28.3583665  42.9191446  15.3253579
  17.0243478  50.5314779  43.5261822  17.7179360  50.7392836  44.1522694
  17.3320520  49.7418213  43.0812168 102.7984333  88.8395500  91.3512802
 102.8939724  87.9031563  91.1772633 103.5029030  89.0418530  91.9669151
  23.3767700  20.4578781  36.9981194  24.1281509  20.3348899  37.5782323
  23.5292172  21.3081264  36.5857267  39.8257232  49.8784018   8.1398928
  40.5792570  49.8782015   7.5496203  40.1662111  49.5281553   8.9630735
  16.9272518  53.2907200  42.8078270  17.1069741  52.3788214  43.0366659
  16.2683427  53.2385254  42.1154785  24.9705768  35.3880978  25.6441426
  25.7965708  35.3042936  25.1677585  24.6132517  34.5002723  25.6620169
  95.5054569  47.2784853  45.3268242  95.9313583  46.5888071  45.8359241
  94.6141624  46.9581652  45.1882029  73.8639402  43.6696148   0.2592307
  74.7987700  43.7479115   0.0689651  73.7267971  42.7336025   0.4051720
  21.5750718  23.8858581  28.8210797  21.3647437  23.6807728  27.9100728
  20.7275701  24.0663624  29.2277646  55.3425121  56.7207146  20.3109288
  55.8773088  55.9799719  20.0254035  55.6763220  56.9354773  21.1819506
  25.7356524  26.5629244  42.5291252  25.2049255  26.3391638  43.2936478
  25.1167607  26.9586349  41.9154358  42.9488516  10.1198995  11.5055132
  43.6168289   9.6453810  11.0106683  42.4859428   9.4403523  11.9955802
  26.4624715  10.3781104  26.7770553  26.8600345   9.9246860  26.0336971
  26.9968772  11.1638808  26.8919849  80.3287125  77.3752737  91.4130783
  80.8918095  78.1005335  91.6835499  80.8168888  76.5890121  91.6574478
 107.2214508  67.0429993  22.6980495 106.9101620  67.5464296  21.9457936
 107.9167366  67.5817347  23.0756330  46.6941166  20.6408787  22.8427029
  46.6578293  19.7634089  22.4619627  47.2897577  20.5545592  23.5870099
  79.4918251  75.2991819  82.8873348  78.9436960  74.6082830  82.5152493
  78.8955259  75.8084774  83.4362221  19.5175374  11.8303967   8.8928986
  19.2345071  12.6472104   9.3039227  19.2996907  11.1523879   9.5324922
 102.4808598  90.2262783  77.4212503 102.1178341  89.6766186  78.1157494
 103.3355331  90.4997826  77.7543545  25.2629328  45.0975657  12.8923261
  25.6249976  45.8232594  12.3838842  24.8882985  44.5092535  12.2367609
  12.1707153  62.3263311  13.4389436  12.6846385  61.6381598  13.0164111
  11.4331138  61.8641472  13.8371432  30.9930182  18.1512451  15.5339706
  31.4030552  17.9024732  16.3623512  30.1907349  17.6304078  15.4979181
  44.7680235  42.4815798   6.8220675  45.2743721  42.9480934   6.1570793
  44.6387720  41.6070890   6.4549243  40.4742289  38.5036230  45.3338051
  41.0431719  37.8498888  45.7402134  39.6870375  38.0171156  45.0891209
  71.4221621  22.5876689  35.3557587  71.2196350  23.4561443  35.7035589
  71.1011648  21.9814706  36.0233784  21.6117358  47.6383209  33.6880851
  22.5027752  47.2899818  33.6574554  21.2133861  47.2108459  34.4462514
  45.0769472  33.9487433  27.1946263  45.8537054  33.4457111  27.4392366
  44.3901396  33.2909775  27.0856667  11.7770147  28.9912415  59.4178438
  12.2413468  29.7367430  59.0372419  10.8513522  29.2248344  59.3484449
  38.9578390  17.7145457  21.3175154  39.4669271  16.9426584  21.0700250
  39.1058278  17.8074121  22.2586346  68.2828569  57.4054575  90.2922249
  68.6730623  58.1086731  90.8113194  68.5907125  57.5669384  89.4003868
  17.7935493  50.6669235  50.5361557  18.2466900  51.1208677  51.2466717
  18.3620465  50.7853889  49.7752333 109.9459171  67.4636078  17.5686121
 109.5037460  66.7963123  18.0934298 110.2148533  68.1279612  18.2030702
  52.2448254  24.2132258  13.3558774  52.6676607  23.8541317  12.5758171
  51.3100719  24.1972780  13.1504309  56.1776304   3.5845572   1.2631647
  56.7945147   3.0382845   1.7502676  55.9933519   4.3186539   1.8491477
   1.4767092  27.0472002   1.2544399   0.9407555  26.8061996   2.0100217
   2.3220208  26.6286063   1.4171030  68.7519217  14.8487222  79.4168139
  68.9289951  14.5690966  78.5186577  68.6744261  14.0325618  79.9108887
  48.0514050  57.2387314  31.2658572  48.7322855  57.5990105  31.8340373
  48.5275316  56.8937874  30.5105114   5.3755790  73.1810331  15.3454769
   6.2695855  73.2409906  15.0087428   5.4594678  72.6870775  16.1610782
  61.9300413  29.1891718  13.1235898  61.1090946  29.6777439  13.0637407
  61.9058514  28.5880804  12.3790538  23.8828015  50.0009251  17.2903800
  23.3498907  49.2739582  16.9682682  24.7854710  49.6976852  17.1930993
  24.9384737   8.7720710  52.0159054  24.0719843   9.0514529  52.3114920
  24.7618556   8.1550372  51.3057566  92.8816700   7.0548677  69.6626186
  92.9642105   7.6775050  70.3849363  92.0313549   6.6379333  69.8017883
  43.1335878  16.0403419  30.5953312  43.1564331  15.5953789  29.7481489
  43.0496931  16.9683528  30.3762674  21.7771649  17.6389551  25.2489805
  21.6997218  16.6941261  25.1165700  22.7167821  17.7902508  25.3512621
  60.5548286  30.6763363  18.3949876  61.0483074  31.0808992  17.6815200
  60.2069855  31.4150095  18.8945878  66.3278913  36.2670159   3.0302581
  65.6674814  36.8134141   3.4563386  65.8399105  35.5095720   2.7071714
  51.9212008  29.6638131  17.9543793  51.8359375  28.7291288  17.7664280
  51.7123556  30.0948000  17.1256053   1.9254556 104.5871258  67.8640127
   1.8098241 104.4944668  68.8096714   1.1727168 104.1332436  67.4850559
  54.4185638  31.8402243  22.8766823  54.6850109  32.5889111  23.4102583
  54.4250298  32.1716690  21.9787192  45.3955078  45.9058142  51.7682552
  44.4582796  45.9507751  51.5790081  45.5727530  46.6897488  52.2881222
  39.2152023  85.8841991  54.8457623  39.2022586  85.1659489  55.4783535
  39.6334791  86.6073608  55.3129959   4.9189016  75.6716585  34.4141269
   4.8153222  74.8331785  33.9641738   5.6294370  75.5225515  35.0379348
  99.3805313  42.4013233   8.8404006  99.8407936  41.6925621   9.2898995
  98.4594059  42.2686434   9.0643358  56.5944433 100.1918507  77.2213364
  56.3589621 100.6522274  76.4158392  55.9195995 100.4483509  77.8498459
  11.3461363  14.9074411  58.2817268  11.6018295  15.7918978  58.5436249
  11.1986542  14.9703002  57.3380470  65.9411192  16.3525236  21.5020323
  65.5837727  16.6964889  22.3207045  65.9402084  17.1020472  20.9066796
  58.9313269  96.9549370  88.5145283  59.1533756  97.8317451  88.2012653
  58.7318325  97.0756721  89.4428921  19.6925366  28.3915472   4.6096882
  19.7044683  29.2440701   5.0447685  20.1688194  28.5334611   3.7916130
  74.2289829  22.8112864  44.8085356  74.1079140  23.2600927  45.6452847
  74.7097206  22.0141983  45.0316381  28.4456015  33.3948207   7.7401644
  28.4695792  32.5731826   8.2306433  28.8820505  33.1925774   6.9126135
   1.0115988  17.3822999   6.4976031   0.5193979  16.6567969   6.1133957
   1.6915399  17.5783598   5.8530313  27.0660090  13.3627045  57.0852709
  27.9258728  13.6119521  57.4240112  26.4930749  13.3775163  57.8519249
  20.9098768  65.4236364   9.8708296  20.9687185  66.3789701   9.8605675
  21.2888765  65.1693535  10.7122147  14.2709541  20.0734353  18.8403392
  14.1582704  19.9927449  19.7874522  14.9319482  20.7577372  18.7352192
  61.8697834  54.8403502   0.3468622  60.9843397  55.2039480   0.3438406
  62.1628666  54.9159813  -0.5612217  62.0258427  15.9700501  14.7263730
  62.3508406  15.4198945  15.4390693  62.2228384  15.4738939  13.9318585
  27.0632744  30.3779578   5.9268743  26.7802405  30.1222897   5.0489467
  26.3567662  30.0833511   6.5015775  50.7882881  43.5158587  24.7826171
  51.3246918  44.1685152  25.2326655  51.3572168  43.1718636  24.0939784
  30.0130248  22.3163629  42.5402021  29.6762538  23.1404662  42.8918695
  30.6204939  22.0008898  43.2093000  31.1491871  52.6373243  36.0143638
  31.3593245  51.7150402  36.1608553  30.9430766  52.6907158  35.0811434
  50.7333660  71.3209534  39.6044731  51.4428663  71.9266319  39.8189259
  50.8433676  71.1443901  38.6701512  56.2358475  13.5056651  63.0196238
  55.4213524  13.7110651  63.4785843  56.1449814  12.5859392  62.7704620
  74.1163015   4.0375996  64.3475914  74.0702963   3.1105188  64.5813370
  74.9945068   4.3087202  64.6149445  25.3902650  40.6958055  43.9364338
  25.5494189  41.4394331  43.3551216  25.3778958  39.9355817  43.3549404
  33.3416867  33.2805347  22.3898673  32.7516794  32.8222847  22.9883075
  33.0243373  34.1835856  22.3853946  32.4105978  14.9246144   9.2897815
  32.9195929  15.6831300   9.5758051  31.6012025  14.9737072   9.7984099
   8.8251007  58.2742071   7.7244890   9.0261471  57.4807167   7.2283202
   9.2150694  58.1235123   8.5855627  43.7082624  83.8135052  28.3017826
  44.1690969  84.5907497  28.6176276  42.7982235  84.0955734  28.2096028
  91.4951897  62.6327229  22.7727461  91.5094471  62.9424906  23.6783266
  91.8881226  63.3458424  22.2694612  75.8996201  36.6902518  24.7167993
  76.6754055  36.2518501  25.0663543  75.3733540  36.8976235  25.4889846
 109.8667431  57.9041147   7.6722080 109.7543335  58.4547043   8.4470928
 110.2006245  58.4998465   7.0014894  66.7939043  28.5311341   6.2480825
  67.0963955  27.6861310   6.5807945  67.4177170  28.7536597   5.5570179
  86.5241528  56.3151407  23.3604169  86.3267899  56.4607620  22.4351716
  85.7427502  56.6184759  23.8226175  50.6363535  36.5538239  17.2063851
  50.1658487  36.4121819  18.0278432  50.1594782  37.2638178  16.7765808
  53.0651093  12.7005208   9.9805880  53.5847998  13.4566605  10.2533638
  53.6213207  11.9456375  10.1729751  74.8993731  56.4960384  19.3372023
  74.9364185  56.6266394  20.2847266  74.8327637  55.5473566  19.2286098
 110.5104542  44.7850990  41.5793657 109.9462700  44.5540619  40.8414364
 110.8468246  45.6541824  41.3607740  21.6182184  67.4854088  55.1717472
  22.4180245  66.9766474  55.0386810  20.9531283  67.0241117  54.6607733
  78.8257599   8.6094874  86.5547562  79.4718647   8.9511311  87.1728706
  78.7350273   7.6858854  86.7891979  68.8241386  40.3855276  27.8214884
  67.9397202  40.1034784  28.0549073  69.2682219  40.5010653  28.6615324
  61.7252159  20.1073599   9.4605410  60.9192324  20.1833200   8.9498061
  61.4623880  19.6427798  10.2550960  44.2996025  36.3049293  27.2379446
  43.4769917  36.2834167  27.7269053  44.6215534  35.4041076  27.2710752
  43.6626911  24.5042634   2.6292104  44.1545486  25.1341057   3.1560937
  43.2185507  25.0381589   1.9704770  25.4555178  30.7400155  14.2262828
  25.1556230  31.6469336  14.1646767  24.8435879  30.2477050  13.6791039
  47.6854610  28.3456349  28.6796761  48.2314444  27.8927040  28.0370355
  46.8194580  27.9504514  28.5791922  28.0244422  39.3541551  17.1546316
  28.3870959  40.0414419  17.7135170  28.7719107  38.7921309  16.9505429
  39.7643542  30.2689052  46.6239500  39.8243427  30.4238915  45.6812859
  39.6036053  31.1346579  46.9992685  24.5757818  21.9278216  43.0075598
  25.4833293  21.6240525  42.9899311  24.4034290  22.2195745  42.1123505
   6.3429040  17.3154545  28.1265068   5.5056822  17.3421359  27.6632810
   6.1582291  16.8240261  28.9268994  12.7779913  15.2055991  41.7278433
  13.6868417  14.9357581  41.5959024  12.8323615  15.9384155  42.3412418
  54.7390604  55.1733112  12.7096736  54.5743370  54.2702723  12.9809952
  54.5311499  55.1844072  11.7753923  56.9491768  50.0292921   8.9962000
  56.6996479  49.8999786   9.9112105  57.5792313  49.3308783   8.8187587
  40.7094049   6.7429149  41.8796682  39.9706864   7.3479319  41.8127060
  40.4244089   5.9632570  41.4030743  40.3178024  38.8643813   6.6933316
  39.7612143  38.8072777   7.4699789  39.8057985  38.4471178   6.0005289
  25.9193683  43.5576487   3.4754780  25.7155943  43.4488821   2.5465661
  25.1338863  43.2535505   3.9302012  48.1456089  48.5505533  18.3573782
  47.8464890  49.1866350  19.0071166  47.6472759  48.7621212  17.5679886
  98.3558750  22.8689361  89.9762726  98.1562901  23.7317681  89.6130657
  97.8757477  22.2572207  89.4181347  53.3165693  47.8039837   9.5480973
  52.9433107  48.0770779  10.3861487  52.8451014  48.3220291   8.8957340
  42.6252556  14.8088682  49.5359850  42.2650385  15.6196356  49.8953342
  41.8571758  14.2989266  49.2786026  56.6580582   8.0057114  39.8054695
  55.7045794   7.9893327  39.8881721  56.8805027   7.1541041  39.4292855
  54.6789455  46.9709778  40.7622385  55.0723839  46.1402035  41.0291815
  55.3983784  47.4588728  40.3614759  64.6520662  69.1397476  17.6198816
  64.1648102  69.6618700  18.2572222  64.7964478  69.7341394  16.8836164
  46.6133305  95.2729399  90.5902881  46.6664234  95.3200705  89.6357243
  46.7821190  94.3531258  90.7944388  83.7930202  49.9209881  79.7979450
  84.5116043  49.5513821  80.3110313  83.1176472  49.2427540  79.8084211
  29.3056107  46.1058044  45.6191206  29.0298820  46.9506407  45.2635145
  30.1069188  46.3005352  46.1051416  15.9336245  25.0527453  50.2987289
  15.3532672  25.7771039  50.5326605  15.4455507  24.2663527  50.5428648
  34.6426678  38.0991721  13.3804178  34.6814227  37.2276306  12.9865324
  35.4718971  38.5097980  13.1354761  93.7782955 100.6196404  87.3027992
  93.2112694 100.7097340  88.0686951  94.6369648 100.4009914  87.6648903
  76.7884588  47.0286369  29.3463802  76.5282726  46.6953850  28.4876132
  77.1032238  47.9159451  29.1736531  16.9454837  10.5232358  52.4681425
  17.8325140  10.8227921  52.2689581  16.7289293  10.9502733  53.2969809
  76.0166505  86.9924696  91.5507195  76.7773893  86.4115699  91.5426131
  76.3887050  87.8744014  91.5484417  64.4576168  38.9010882  13.1850815
  64.2073917  38.1014848  12.7222073  63.7867260  39.0073442  13.8595045
  71.9502306  25.3640127  -0.1636691  72.0278740  25.1915407   0.7746577
  72.2348976  26.2723112  -0.2646010   4.2925411  73.4357023  42.4832344
   4.0108395  73.1820250  43.3621693   3.5212043  73.2942629  41.9343567
  34.0586162  39.9012780  21.0419250  34.1125298  40.2913761  20.1694870
  34.9703074  39.7700477  21.3023663  14.4499719  79.6164322  82.5043678
  14.1038179  79.7469044  81.6215324  14.6812761  78.6881447  82.5361633
  66.6011953  47.9357719  16.7397320  66.5181398  48.6012363  17.4227321
  67.5113392  47.6451063  16.7979431  48.8046455  16.6411209  22.3170972
  49.3292665  17.1662068  22.9214883  48.0966616  16.2901115  22.8572655
  60.4829645  83.4586811  74.9243212  61.2680197  83.9923477  74.8013449
  59.7840691  84.0934849  75.0817823  80.2902126  38.2217813  25.6509900
  80.1017094  37.5963736  26.3506770  81.2009811  38.4774208  25.7972050
  10.5082059  37.9804802  23.3068681  11.3866448  37.6196933  23.4269023
  10.4699314  38.2141709  22.3794222  21.1803269  29.2372751  58.7884283
  21.6637444  28.5946631  58.2692099  20.2816057  28.9080620  58.8006783
   1.7973049  24.4468737   5.7842809   1.8212287  23.4970355   5.9003383
   2.6460877  24.7491097   6.1074728  61.5145540  39.9752259  10.2639914
  60.8155680  40.0552607  10.9130251  61.8076515  39.0670466  10.3384030
  44.6111965  19.6106243  17.5800300  45.1946449  18.8798845  17.7845693
  43.7393093  19.2174697  17.5416505  39.2686772  20.0871587  37.5875664
  39.5509696  20.1436949  38.5004449  39.4856715  20.9423494  37.2163606
  28.6454368  60.6848240  17.7858579  28.8409901  61.4710808  17.2761631
  29.3713999  60.0902367  17.5969768  45.3285408  39.4013882  35.6252551
  45.2172661  38.7873220  34.8994637  46.2302637  39.2667437  35.9168005
  85.5152512  58.2658815  87.3162937  85.5960083  59.1809368  87.0472527
  86.4176273  57.9507113  87.3673534  90.1819324 103.6229992  36.4012027
  89.9795246 102.6970196  36.5347195  90.4378891 103.6819172  35.4807425
   9.6325123  61.8404436  49.9280262   8.8913089  61.5220118  49.4128036
   9.2535079  62.0696497  50.7765818  43.6305141  65.5937910  23.0675387
  43.0421305  65.2471256  22.3968196  43.8125944  66.4904070  22.7862024
 105.9212399  43.7637520  88.4901714 106.7342472  44.1287518  88.1408596
 106.0155392  42.8178787  88.3776283  35.3465486  24.5678520  32.1523190
  34.9365592  23.8068366  31.7412233  34.6173310  25.0541687  32.5369883
  52.3709059  30.0381756  11.3440585  52.7467299  29.3975639  11.9478810
  52.1351147  30.7812428  11.8994749  10.9569311  46.5571117  67.2302961
  11.4788318  47.3009109  66.9292736  10.3573132  46.3766193  66.5063381
  21.9042802  44.6820593   3.6553442  21.3338470  45.4504013   3.6333182
  21.8996406  44.4065094   4.5720133  22.7935791  27.8100657  57.0783234
  23.2625628  27.8448200  56.2446117  23.4315896  27.4552441  57.6974154
  21.7676139  62.3578835  10.7431042  21.8084335  63.0165720  11.4364231
  22.5836897  61.8656063  10.8320785  50.3902340  44.6907854  10.9390736
  50.1396132  44.1919851  10.1614988  51.1001205  44.1823626  11.3312507
  51.2299490  33.6934280  20.2059984  51.5015268  32.8476453  20.5625486
  51.9810581  33.9887142  19.6913433  46.8601990  30.1570940   4.6515828
  46.5710402  31.0216141   4.3596506  46.5420866  30.0895071   5.5518442
  30.6612873  31.4604902  31.5423179  30.3159380  30.5731082  31.4447498
  31.3087702  31.5438318  30.8422780  45.1653910  29.6382141   1.4503101
  45.4081583  30.4311800   1.9283259  45.7397079  29.6348786   0.6845558
  72.4082232  71.8256378  91.5187359  72.6523399  70.9601688  91.1907005
  72.5144958  71.7607880  92.4678135  93.6448765  71.9164848  73.2930899
  93.0422878  71.2665844  72.9315042  93.0812359  72.6412010  73.5638762
  50.6987953  75.0772095  25.3487563  51.1708927  74.8233938  24.5556998
  50.1907110  74.3008041  25.5838680  51.9194508  48.3134651  32.2851586
  52.1859264  48.9443827  32.9538679  51.1295986  47.9064322  32.6410961
  69.3190241  44.5567799   1.8980983  69.4978809  45.3877974   2.3381555
  68.3984804  44.3775654   2.0896971 102.9535007  97.8853893  14.1552591
 102.4504757  98.5609055  14.6100879 103.8027573  98.2929039  13.9851975
  63.7704706  28.5600948  39.5452142  63.7659979  27.9654717  40.2953053
  64.3589401  29.2689300  39.8050022  55.6117010  20.6758428  22.3058081
  54.7780657  21.1458588  22.2866774  55.6473970  20.2172112  21.4663959
  52.1638250  55.0984383  31.3200974  52.3391056  55.6566191  32.0776892
  51.8212509  54.2869139  31.6946554  29.4544601  84.4486618  33.6841440
  29.5865822  83.6114693  33.2393098  29.7732520  85.1030827  33.0625772
  38.6847091  39.1659808   8.9218748  38.7991238  39.9094701   9.5137894
  37.7366209  39.0449095   8.8698888  28.4025335  47.8184366  37.2427630
  28.2150888  47.2676182  38.0028248  27.5446606  47.9916811  36.8551135
  56.1485052  16.7426014   1.3105777  56.8727684  16.5731037   0.7081261
  55.5856466  17.3583388   0.8412264  69.8886967  53.5450745   4.0469664
  70.2613497  54.4210196   4.1473874  68.9418268  53.6838961   4.0668246
  76.7174864  36.0873985  11.3667572  77.0242977  36.4794540  10.5492043
  75.7707262  36.2281895  11.3593948  62.4853659  57.2804499   1.7458871
  62.0764589  56.4681673   1.4471860  62.3685455  57.2721529   2.6958954
  41.1798096  42.0915747  32.6196909  41.0249662  41.7634392  33.5054588
  40.3084421  42.1401072  32.2265148  84.8980141  98.7748528  80.9145546
  85.8176899  98.6621761  80.6742859  84.7408390  98.1058502  81.5808678
  45.9431267  71.3658619   9.0472567  46.4568377  70.8095074   8.4617621
  45.3940630  71.8872356   8.4616536  96.4921474  25.8983684   9.1208351
  96.2517452  26.1790276  10.0038230  95.8965302  25.1739454   8.9292908
  29.4553828  58.9086580  20.5746841  28.8679957  58.8936234  19.8190510
  30.1401520  59.5324278  20.3333759  89.2287159  97.8617477  81.3726902
  88.5926151  98.3625889  80.8620453  89.2139053  98.2684994  82.2390461
  64.8124266  58.9469671  15.9056890  64.8965311  58.3739567  16.6678059
  64.8103476  58.3507681  15.1568401  56.1077642   8.4856105   6.5842998
  55.4732132   9.1811353   6.7569888  56.3656712   8.6177897   5.6720257
  82.6117992  30.9289384   9.8431951  83.3190060  30.6964588  10.4448998
  82.9606533  31.6613364   9.3351340  46.8836308  76.9769907   5.2877855
  46.4833260  76.5237856   4.5457610  47.3074818  76.2826157   5.7921934
  50.8463812  28.2274914  32.2029042  50.3147554  27.4315834  32.1913028
  51.5552711  28.0331016  32.8160286  61.2800598  55.7869720   6.8449390
  60.6274128  55.8303642   6.1460811  61.2204123  54.8897219   7.1729857
 105.5765915  99.8973656  83.2477093 104.6382618  99.8606777  83.4332657
 105.6283188 100.0570679  82.3053455  49.2227459  75.9251833   0.9984545
  48.6588955  75.6748486   1.7303254  49.5410728  76.7979670   1.2289837
  69.7281027  49.8541117  19.3451309  70.3904915  49.6497107  20.0051999
  69.7773933  49.1279364  18.7234616  64.3105984  55.0587893  15.5510187
  64.7222900  55.8440590  15.1903224  64.4301367  54.3930626  14.8737109
  14.2571557  28.6229539  79.1576052  14.0273237  29.2139125  79.8746681
  14.4934881  29.2041183  78.4346771  65.4566526  45.5571938  30.7960534
  65.2800512  45.3379965  31.7109275  66.0976124  44.9050808  30.5129457
  40.2286768  65.3990602  56.7420244  40.9395647  65.9310770  56.3845015
  39.9985075  65.8291483  57.5656033  63.8772631  84.5080090  90.2361965
  64.8052883  84.7324276  90.1680756  63.7433290  83.8370705  89.5667648
  64.1356134  74.8386669   3.2855907  63.9208841  75.3275633   4.0800089
  63.7221479  73.9845133   3.4109011   8.7408888   8.1414282  78.8137865
   7.8097492   8.1324357  79.0354395   8.7836683   7.7460098  77.9431295
  55.2833986  67.8209543  87.0731735  55.2936649  66.8692541  87.1751213
  54.9427032  67.9635811  86.1901093  45.9772682  25.9823847  26.0417843
  46.0588884  26.0614038  25.0913477  45.2269650  26.5335011  26.2643838
  54.4268894  36.4722371  12.4729633  53.5616827  36.0989714  12.6412606
  54.5783520  37.0666647  13.2077742  48.9637232   9.5651519  75.4946566
  49.8786688   9.4440901  75.7485247  48.9285755  10.4544616  75.1423407
  53.0019522  59.7710085  27.6806521  52.3551083  59.0655756  27.6944208
  53.7351370  59.4139242  27.1794915  13.2017565  25.2667141   8.2409668
  12.7055442  24.8602414   8.9514494  12.5458384  25.7451034   7.7338707
  80.2830601  29.8266315   9.3459606  79.7477674  30.6070280   9.2021966
  81.1386108  30.1677155   9.6066111  66.5443897  33.5770607   4.6500477
  65.8549738  33.1093907   5.1214516  66.6735840  33.0693340   3.8489515
  60.5869675 104.9236298  21.0016394  60.0525951 105.1482391  20.2399158
  61.4096403 104.6039104  20.6312084  39.6636510  48.4101343   2.1787311
  39.4956207  49.3251562   2.4039716  38.8308740  48.0925941   1.8296137
  32.2538567  21.4227152  29.6664500  31.5246606  21.6623664  30.2383542
  33.0283594  21.4900398  30.2248812  43.9732265  16.2265396  18.0547678
  44.6220016  16.6506624  18.6164129  43.2507658  16.8527293  18.0082500
  73.8155317  49.6403885   5.1506054  74.6071672  50.1652861   5.0321579
  73.5941410  49.7462940   6.0758090  50.2677202  36.0549474  24.2296457
  51.1821461  35.9693527  23.9599586  49.9934435  35.1608372  24.4335246
  14.2692554  89.2727661  10.2439237  13.8341486  88.9257717   9.4651389
  14.3602037  90.2096367  10.0700557  42.9597092  59.5453930  14.3843865
  42.4884605  59.9961662  15.0850749  43.6335516  60.1674700  14.1101873
   3.6836392  10.8991945  60.7413530   4.5190367  11.3433933  60.5963373
   3.6990243  10.6563699  61.6671133  48.0725050  70.1385450  28.8124323
  49.0116930  70.0170088  28.6732030  47.6653814  69.7846317  28.0217195
  47.0738649  34.5348501  29.8560429  46.6940737  33.6601305  29.7732258
  48.0181360  34.3831897  29.8958063  61.1364889  57.9847813   4.3741378
  61.0122299  58.0490351   5.3210604  60.2844477  58.2163620   4.0045038
  78.8301849  30.1035476  29.3845916  79.5371294  29.5129704  29.1244435
  78.8225937  30.7806683  28.7080717  44.9210548  41.6988134  31.9919109
  44.4217157  41.9833517  31.2264490  45.1670551  42.5118446  32.4331570
 107.3437691  68.1481361  20.1324964 106.6720009  68.2264328  19.4551301
 108.0123138  68.7855864  19.8816133  75.3959417  83.1809425  61.9286537
  74.4693422  83.0023479  61.7681694  75.4972267  84.1129208  61.7352486
  72.5814486  42.0669079  22.2114491  72.5066757  42.9260921  22.6267147
  73.4878397  42.0263815  21.9064164  48.2079887  23.8348961  36.6439843
  47.7149916  24.4442964  36.0946059  48.8712740  23.4682059  36.0593271
  54.1576767  17.4828279  11.2964857  54.9487019  17.9291022  11.5987217
  53.4584665  18.1247389  11.4201188  59.6789408  42.6192760  13.6891091
  60.4686880  42.4699974  14.2089641  59.9916792  43.0618334  12.9000783
  35.3886223  24.4824839  22.4689293  34.6672273  24.5442128  23.0950379
  35.2499366  23.6456156  22.0254779  33.4758258  52.5132513  32.9879737
  33.7486696  51.8526649  33.6246967  33.8343430  52.2058678  32.1553779
  60.5600023  57.2188616  17.4130392  60.6243944  57.5178623  18.3200586
  59.8102236  57.6952267  17.0564699  45.4167795  89.9164200  84.4443989
  45.6907845  89.9989319  85.3578186  44.5757532  90.3717327  84.4045639
  35.7275820  74.8231220  12.7328622  36.2681413  74.5011282  13.4542143
  36.3570881  75.1064491  12.0697796  61.9869995  31.9319487  16.3957655
  62.4895239  32.6753783  16.7289567  62.5541449  31.1747956  16.5416980
  38.9866686  35.7747340  24.0688729  39.1644716  36.4240003  23.3883786
  38.1952834  35.3261590  23.7710118 110.7589245  19.7674680  59.1668272
 110.8927441  20.1724362  60.0237560 110.1935196  20.3809953  58.6976433
  78.7982702  98.8525581  64.3892479  79.3051434  98.1510162  63.9804077
  79.4217396  99.5720673  64.4883490  45.5767775  78.3454514  27.5629950
  45.9940815  77.6574659  27.0445728  45.5061865  77.9734230  28.4421110
  73.7730026  19.3610227  16.8788910  73.5419750  19.1704035  17.7880239
  72.9717636  19.1840839  16.3860071  48.0950403  28.0993605   3.3844218
  49.0344143  28.2713556   3.3194476  47.7103949  28.9488196   3.6005193
  75.8217430  10.3025794  12.8116882  76.0669518  11.2050879  13.0156052
  75.9903526   9.8199058  13.6209035  82.2876263  97.0981312  61.0021639
  82.1663094  96.6561317  60.1618385  82.9517937  97.7651215  60.8282709
  36.9656992   1.2664782  74.7180748  36.2365317   0.7654959  75.0835323
  37.3203492   1.7514828  75.4632092  32.3279095  32.4210978  33.7761784
  31.8487072  32.1101308  33.0081320  32.3234463  33.3745289  33.6914396
  45.4428196  78.7376499   2.7879620  46.1467361  78.8650656   2.1519613
  44.7443819  79.3216610   2.4924099  16.3388884  15.3469372  66.2498283
  16.1400533  14.4562507  66.5385723  16.5547168  15.8172166  67.0551109
  60.1467037  28.2599115  19.2818046  60.3932714  28.5919452  20.1450491
  60.3359222  28.9831400  18.6840010  68.7641001  36.9940495  27.4937367
  68.5599518  37.2512484  26.5946245  67.9257107  36.7097497  27.8577542
  50.0831223  67.9293728   7.5038946  49.4652891  67.2038984   7.4133605
  50.4414749  68.0499411   6.6245323  59.7860193  54.0830517  24.6273303
  60.3092146  54.5344067  23.9649296  59.0314674  53.7435055  24.1460919
   2.5654343   6.5379012  74.7697020   2.7500308   7.3057550  75.3105879
   2.6750317   6.8465418  73.8702774  97.7936649  97.4575806  63.5060263
  98.4370518  96.7856884  63.7315416  97.8412819  98.0861664  64.2263365
  22.3605466  97.6948071  83.6513615  22.4131203  98.1954288  82.8372002
  23.1076598  97.9976749  84.1674328  37.3286462  57.8367519   6.7434061
  37.8494406  57.7475023   7.5415540  36.7475748  57.0761299   6.7502654
  44.9227571  13.6011779  83.3340263  44.2459440  14.1900373  83.6677837
  45.0213766  12.9379940  84.0171719  35.8258748  48.9749193  10.9199250
  34.8990703  49.1347742  11.0979986  36.2560940  49.8045778  11.1268222
  36.2987638  12.9208291   5.3659618  36.0543203  12.9606402   6.2905669
  37.2509456  12.8232908   5.3739399  31.5857720  17.0981216  32.6117802
  30.8127379  17.4841070  33.0236864  31.2752485  16.2679493  32.2503638
  57.0510292  57.0297623  22.5656700  57.0980453  56.1181784  22.8538275
  57.9629230  57.2829437  22.4222064  57.8447676  41.5678883  36.4628839
  57.0784140  42.1229601  36.3185596  58.1061888  41.2877131  35.5857325
  71.6603708  45.4617262  17.0581055  72.0739031  46.3079548  17.2287524
  72.1899748  44.8330879  17.5485766 112.1389961   5.5500346  88.2556915
 112.6087570   4.7898874  88.5988235 112.7967262   6.2448519  88.2263565
 108.7521362  43.3982134  84.0738964 109.6548176  43.2744408  83.7805080
 108.2249451  43.2777882  83.2840919  42.2327518  43.2579947   3.9287049
  41.7863321  43.4911013   4.7427097  41.7500401  43.7269449   3.2480371
  38.1407833  33.5223317  42.1506071  37.5996590  33.4383011  41.3655233
  38.5760593  34.3691134  42.0519781  45.6789637  44.3983841   5.3291041
  45.3642321  44.8790169   6.0947186  45.0549650  44.6158743   4.6366060
  72.6123953  55.5765152  21.8181467  72.1814394  54.7564888  22.0591283
  73.5298777  55.4440212  22.0566845  93.5935307  56.9250679   4.6048969
  93.5018444  56.1638451   5.1779258  94.3725777  57.3767233   4.9294415
  32.0610118  37.1734810  83.2304764  31.1519003  37.4708915  83.2665062
  31.9985032  36.2230325  83.1357479  36.2724900  52.9057837  14.0045094
  36.4794612  52.0845222  14.4505167  36.3948059  52.7111483  13.0753231
  46.9315338  75.9411001  26.7312551  46.5427876  75.1487875  27.1018624
  46.4287949  76.1037970  25.9331203  49.6375179  49.4902325  11.5025055
  50.3597307  48.8628197  11.4708495  50.0104094  50.3021955  11.1591482
  40.8528709  30.4040313  36.1850834  41.6000938  30.2857351  35.5986571
  40.0998878  30.4866505  35.5999136   7.5145769  53.9736414  25.7624054
   7.9646629  53.6825800  24.9693489   8.2058960  54.0339565  26.4217019
 104.7678280   1.9017817  87.8551674 104.4233418   1.0093313  87.8220844
 105.6663227   1.8237391  87.5344658 106.9146729  29.8750019  32.5216913
 107.3301411  30.0775576  33.3598971 107.5887299  30.0630999  31.8686199
  95.1931572  97.8236771  92.0834923  95.9250450  98.4381771  92.1380329
  94.6822643  98.1257343  91.3325119  64.8026705  59.7964048  20.3405237
  64.6921015  60.5608511  20.9058809  64.3047333  59.1035795  20.7744336
  31.5314126  25.2167678   7.4857104  32.2073126  24.6960449   7.9195762
  30.7690263  25.1461005   8.0601704   7.2653425  18.1431437  91.5752602
   7.7076471  18.4932446  92.3485851   7.9664224  18.0131912  90.9366417
 101.7927551  30.3451943  12.7763605 101.8571186  29.6980357  12.0740259
 101.5006256  29.8440647  13.5377789  28.9528203  71.7701292  50.5594778
  28.9031410  72.0345974  49.6408796  29.3652797  70.9066200  50.5381393
  92.7864456  46.5837669   0.4787719  93.5875797  46.9027996   0.8942570
  93.0775833  46.2268353  -0.3603170  11.1151326   4.3516445  89.9974060
  10.5232036   3.6074284  89.8878860  10.5512655   5.0637442  90.2993965
  72.9826927  44.2365170  13.4091318  72.4217510  43.6744165  13.9435697
  73.8256454  44.2343378  13.8626230  54.2902136  66.5083551   6.1872262
  53.9598083  67.0068789   5.4398704  53.6575603  65.7990313   6.3005328
  29.9068856  33.8115573  78.5736465  30.7075119  34.3341470  78.5275030
  29.3735003  34.2486382  79.2374945  20.0892687  29.3028140  35.7076645
  19.8277557  29.1685414  34.7967219  19.3483317  29.7607732  36.1045456
  79.0389156  77.1744442  16.8561995  79.1209602  76.2710667  16.5505755
  78.5268164  77.6118374  16.1759984  65.5476570  64.8184681   5.3794438
  66.3642740  64.8520994   5.8776796  64.8624516  64.9589920   6.0328776
  66.8083525  14.6019232   1.5741482  67.5365019  14.6773160   2.1908718
  66.1567640  15.2251220   1.8955351  54.1611242  45.1287031  20.6556773
  53.2974911  45.1261425  20.2429318  54.4283772  44.2095709  20.6576371
  52.3071194  44.1493082  17.2793639  51.7012548  44.2330647  18.0156684
  53.0390167  43.6404657  17.6281190  66.3763380  52.3631763  36.5660286
  66.4846849  52.9991245  35.8588767  67.0761251  52.5716639  37.1849489
  73.6714554  36.6789341  16.9341779  74.3054485  36.9822621  17.5840080
  72.8880310  37.2029757  17.1010959  55.2887201  18.4126759  76.9327068
  54.6074486  19.0848517  76.9160700  54.8169088  17.5976431  77.1040154
  69.7376919  70.1100302  21.6114306  70.3547049  69.3805075  21.5537930
  69.9603033  70.6712627  20.8686709  26.5029573  36.8934250  80.3733444
  26.9631767  37.6686835  80.6949139  25.5952191  37.1792102  80.2705383
  31.0652256  44.4545984  23.4690475  30.6476855  45.1578045  23.9664364
  31.2794852  43.7915802  24.1253471  43.3557606  52.6298904   0.7319668
  43.1428242  52.3625278   1.6260627  42.5056171  52.7421951   0.3066648
  28.2473969  16.1550641  15.8266234  28.4452820  16.8023491  16.5034509
  27.3247075  16.3011408  15.6179655  10.6493759  43.0582523  32.0252442
  10.5167663  42.9728651  32.9693604  11.1833143  43.8468122  31.9287300
  36.3807774  42.3655176  38.3425212  36.4898324  42.3568487  37.3915935
  36.7610455  43.1990910  38.6196232  65.3485966  43.5401678  21.9744682
  66.0887480  43.6437893  22.5725198  65.7331896  43.6190224  21.1014843
 102.0460320  49.7289467   1.4705150 102.7050877  49.2061090   1.9271627
 102.1860695  50.6210995   1.7878331  39.2190099  35.2547956   7.4803150
  38.2879281  35.0951171   7.3259789  39.6594667  34.5003104   7.0891839
  40.6708145  33.7983561  12.2649300  40.5768633  34.0382695  13.1868017
  39.7722936  33.7361407  11.9408584  45.7773113  64.1585875  23.1911349
  45.1315308  64.8633575  23.2411265  45.3972626  63.4483671  23.7082219
  19.1546035  42.6888418  31.4885402  19.5626414  41.8356466  31.3408828
  18.5035992  42.7669001  30.7911658  81.7248726  57.1066236  22.7925849
  81.4486790  56.4702892  22.1330190  81.3104916  57.9262590  22.5229430
  41.8119812  70.0112247   3.8078475  41.7856789  70.6301546   3.0781430
  42.2526217  70.4884577   4.5109275  73.8872528  35.6042099  11.4645934
  73.7190580  34.9094462  12.1011806  73.8554811  35.1637530  10.6153464
  11.1475551  40.1108599  44.3708563  11.2407124  41.0635090  44.3747187
  12.0426095  39.7823334  44.4555902  33.5419416  50.2766466  51.6828680
  32.9350138  50.8786011  51.2521458  33.7255120  50.6859255  52.5284576
  90.7443047 103.3390522  79.8898506  90.1127243 103.5420418  80.5798817
  90.3549957 102.6029396  79.4178247  34.2308879  47.9226732  17.9160893
  33.6439776  48.2975721  18.5727620  34.7606182  48.6621952  17.6182222
  84.1397190  78.6561871  11.6662848  84.8363018  79.0160036  12.2154009
  83.5828018  79.4076443  11.4628530  83.4308243  91.3088322  72.7774048
  83.7718296  92.1755695  72.5566912  84.1972542  90.8184814  73.0746746
  51.9933462  29.0278983  24.1377759  51.0588312  29.1535187  23.9730716
  52.2692919  28.3912015  23.4784532  60.9042454  38.7342310  19.3104827
  61.3818693  37.9396868  19.5488143  60.9612703  39.2901611  20.0876069
  36.7170310  67.7877522   1.4384033  37.6729870  67.7480125   1.4666529
  36.4928651  67.5290203   0.5445135  33.9543581  40.8425713  39.4827437
  34.5990658  40.7944918  38.7768579  33.5588646  41.7090034  39.3872929
  79.6835184  13.7905538  80.9829521  79.1236782  14.0736067  81.7059231
  79.0756464  13.6092472  80.2661133   8.2650906   4.2488971  78.6440039
   8.9622003   4.0986565  79.2825174   7.4896204   4.4315875  79.1745758
  37.0293188  38.8884044  12.0630980  37.9401922  38.7777162  12.3356605
  36.9316602  38.3042669  11.3111138  67.1883965  77.2018194  15.6016266
  66.9992018  78.0516863  15.9993315  66.3761854  76.9593525  15.1569283
  45.1178598  47.0273972  27.2882080  45.3546810  46.9722557  26.3624072
  45.3376341  47.9247427  27.5386143  37.8924179  55.1517630   3.2039225
  38.6856222  54.6432066   3.3725241  37.5112367  54.7493219   2.4235541
  32.3414230  31.2118626  88.7127209  32.5169635  31.6738510  87.8929710
  33.0528712  30.5757260  88.7862301  60.5437708  56.7977524  14.1914833
  59.7338915  56.9012117  14.6911073  61.1242008  57.4781847  14.5325780
  87.6801395 106.0403347  84.9626255  87.8059959 105.1396465  84.6640396
  88.3866119 106.1849308  85.5920792  77.3086596  56.8443632  10.9871459
  78.0058241  56.7786741  10.3345537  76.6235542  57.3545456  10.5552006
  83.0890560 103.2596207  86.3723469  83.7916565 103.6396885  86.8997288
  83.3168983 102.3325920  86.3021755  63.4085941  27.0492411  42.3389530
  63.6933184  26.9703341  43.2494116  62.4667549  27.2103643  42.3956490
  41.9455671  25.8368492   5.4542220  41.6526794  24.9256897   5.4695994
  41.2150955  26.3166809   5.0638258  58.6601257  44.0475893   3.3327496
  57.9805803  43.3767462   3.3992419  58.1847048  44.8493576   3.1150997
  49.9965858  65.1293039  13.3021355  49.3215561  65.0080585  12.6344061
  50.6446266  65.6984615  12.8870022  21.0664296  33.7686539  49.5604372
  20.4605627  33.0565095  49.7653913  21.9226551  33.3449340  49.5006657
  88.8191128  89.2121983  84.7839069  89.2164326  88.3842945  84.5138359
  88.0295372  89.2850971  84.2477226  25.6629515  39.7895479   9.8201019
  25.5629802  40.1010180  10.7196712  26.5690422  39.9989605   9.5934331
  36.0919189  20.3043985  28.1033683  35.9744334  21.2031126  28.4111714
  37.0304155  20.1403379  28.1957746  86.9124699  20.3894472  25.4759455
  87.7716064  20.1016378  25.7846260  86.3316345  20.2554202  26.2248778
  41.4515781  54.7760916  45.6052637  42.1132565  54.3996859  46.1855507
  41.4483595  55.7091045  45.8190536  58.6797142  70.5826235  18.5276747
  57.8892660  71.1126852  18.4254050  59.2296314  70.8265114  17.7831364
  47.2315741  60.1783180  25.8146262  46.8139029  59.4447327  26.2658906
  48.1552505  59.9327421  25.7622910  63.7756443  27.1184158  18.3754158
  62.8537703  26.8607855  18.3743954  63.7650776  28.0470371  18.1435001
  25.3853750  32.6415801  17.4502861  25.3731012  33.1181455  16.6202450
  25.1255274  33.2913303  18.1033838  36.1531448  53.2843924  36.7643380
  36.2990832  53.7736654  35.9546828  35.2021861  53.2799053  36.8733764
  22.4382377   5.7098711  26.1523438  21.6427302   5.2584481  25.8701777
  22.9007506   5.9111691  25.3388381  29.8994946  56.3150883  23.5046220
  30.5713296  56.0232925  24.1208386  29.5827985  57.1415377  23.8692021
  50.5367136  51.1660624  28.3670497  50.3730965  50.2671432  28.6523557
  51.4843369  51.2742710  28.4478736  54.4371605  24.0298343  17.3090553
  55.2734900  24.0617609  16.8445504  54.1533566  23.1191826  17.2290432
  51.8295813  36.3101816  10.2775049  52.3822212  36.6864991   9.5925182
  50.9524298  36.2923360   9.8947209   6.4385557   6.1320001  89.9547291
   7.0318317   5.8380210  89.2634678   5.9575158   6.8611848  89.5634174
  72.4675655  49.4139290  11.3361847  73.4235430  49.4544363  11.3626027
  72.1898699  49.7529268  12.1871829  11.5216279  30.0023556  26.6258240
  11.4295602  29.0521121  26.6950750  11.8353593  30.2760363  27.4877405
  37.7658725  52.0452404  31.3353109  37.2974896  51.3512802  31.7992806
  37.1796393  52.8006458  31.3792300  57.8514719  73.2790804   8.8782191
  57.6841068  74.2142153   8.7609917  58.0246878  72.9541588   7.9946733
  58.3364725  58.8436127   9.2529738  59.0316725  59.3445253   9.6795982
  58.7465477  58.4884644   8.4643424  75.1259136  66.1781979  22.6274133
  75.8968306  66.7201424  22.7953720  74.6347570  66.6600657  21.9619799
  54.6891165  26.1268306   4.7538599  54.6770716  27.0831537   4.7147200
  54.5373058  25.8482265   3.8507736  49.7467136  57.9820538  20.8388948
  48.9544678  57.6415873  20.4233742  50.4155064  57.3220491  20.6562924
  45.6852627  64.9817514  16.0691118  46.0923386  65.6914330  15.5722523
  45.0826740  65.4233217  16.6675520  41.4126968  26.8803883  25.0252771
  40.9703779  26.7124677  25.8573747  42.2996521  27.1407485  25.2737808
  79.1444778  61.9567633  25.5084658  78.9089537  61.0290194  25.5154347
  79.5467663  62.0953083  24.6510291  73.4542704  54.8734856  29.5806336
  72.7013779  55.2208996  29.1024280  73.9786530  54.4311523  28.9131045
  58.9063740  51.0501146  11.5753353  58.8386297  51.5139008  12.4099278
  58.4693193  51.6240644  10.9462130  40.3415346  17.9431367  15.2447796
  39.6160364  18.2912982  14.7264469  40.7414389  17.2801220  14.6820009
  22.7463245  35.1882267  33.9255214  22.3259807  34.3282604  33.9251399
  22.0216513  35.8089995  34.0011525  43.9022875  26.5626097  18.3684289
  44.6703243  27.1333098  18.3428872  43.2601404  27.0482564  18.8861394
  75.5872965  62.3123312   2.1499234  74.9125910  61.6384602   2.0668907
  75.1021242  63.1374264   2.1571822  39.7311354  45.3761148  19.1974819
  39.0122747  45.2928638  18.5709512  39.3059516  45.3502703  20.0546765
  28.5894775  36.6235757  83.2381916  28.5542083  37.3220420  83.8917446
  27.8632736  36.0438061  83.4678173  47.4820948  51.9327593  12.3879707
  48.0189848  51.7370987  13.1558883  46.8632317  52.5969934  12.6913440
  30.5817437  48.5610199  40.8283567  30.9378958  48.5336781  41.7164087
  29.8672438  49.1961765  40.8763027  43.4722185  58.2127571  29.3820643
  43.8566113  57.7038956  30.0958776  44.0517902  58.9686775  29.2876625
  18.9846599  36.9478488  81.7887592  19.9414825  36.9586635  81.8133640
  18.7491047  37.7289271  81.2880993  68.9554071  35.5722952   4.4097081
  69.3125534  35.4059267   3.5373551  68.0099821  35.4643011   4.3060488
  54.9862528  85.7836533  41.4056253  55.7845449  85.6389999  40.8976507
  55.0309801  85.1381969  42.1110439  36.5217662  73.9229012  26.3430595
  35.7599092  73.8004732  25.7766533  36.1521745  74.1583109  27.1940684
  36.1825562   2.6507223  77.7403069  35.7974482   3.0847195  78.5016060
  35.8821821   1.7441109  77.8040552  12.8699195  21.5744829  89.1829586
  13.3857179  21.0607600  88.5614491  13.0386603  22.4846983  88.9395142
  62.4508905  83.0994892  15.2616847  62.8656960  83.7614250  14.7084975
  62.3382378  82.3428726  14.6862960  75.7939434  89.4481277  41.1304474
  75.4790306  88.9084244  41.8555498  75.2653313  89.1743183  40.3808928
  39.5653009  65.2723455  18.1405747  38.8088083  65.2561665  17.5543249
  39.7705793  64.3497992  18.2922137  76.6266060  63.7452793  38.6423755
  77.4343109  63.3264923  38.9398003  76.9009304  64.6147537  38.3508396
  70.7132626  94.1765022   4.7400567  71.6542387  94.2643166   4.8919725
  70.4452419  93.4544659   5.3084391 100.4125214  53.0151415  43.3885336
 100.2913952  53.9645147  43.3728266  99.5479393  52.6669502  43.6064672
  56.0126877  14.2685187  51.6047287  55.3053761  14.7828615  51.9938183
  56.2291384  13.6163449  52.2710991  72.5264120  79.5712471  27.2683358
  72.2521257  78.7301159  27.6337075  72.6355267  79.4017649  26.3326001
  95.6215286  59.9762154  46.9624233  96.1352634  59.5901680  47.6718426
  95.5802727  60.9082937  47.1763468  35.7966495   7.6544833  18.3956921
  36.5378475   8.2191509  18.1765878  35.7167768   7.0629603  17.6473916
  77.7748108 101.5168858   1.7262934  77.2139502 101.2360573   2.4493435
  77.5932789 100.8909035   1.0252760  48.6094856  78.4454203  11.6522026
  49.1920996  78.5614014  12.4027634  48.8132286  77.5696659  11.3239181
  75.6309462  79.8163605  17.8863621  74.8437214  80.1162052  17.4318194
  75.8792639  79.0122795  17.4302661  13.3107924  48.5846901  86.0823631
  12.5748289  48.3339167  85.5240631  12.9467475  48.5965872  86.9675541
  20.3370214  75.2280188  14.5752037  20.4150200  76.1468267  14.3184233
  21.2354660  74.8981476  14.5605993  62.0048571  65.4250431  19.8061490
  62.6960659  64.8957348  19.4082844  61.8522310  66.1310101  19.1780221
  59.1437006  80.8911324  26.6411948  59.7144270  80.4327869  26.0244107
  59.7440481  81.3702869  27.2123456  53.9380169  48.3608770  28.5602188
  53.3525372  49.0864754  28.7769103  54.6633053  48.4453106  29.1791415
  56.7299986  22.3539877  89.2055798  56.9795752  22.1322417  90.1026726
  55.9294033  22.8700352  89.3003082  83.9721489  57.1100950  24.6729946
  83.2995415  57.3192120  24.0248418  83.7244511  56.2473059  25.0053740
  56.4475870  40.5650139  32.1639156  55.7163763  40.0675201  32.5300622
  56.5511608  40.2207184  31.2768054  45.1370573  60.8360338  13.6711407
  45.4533482  59.9720335  13.4071338  45.4690123  61.4289093  12.9969490
  77.7423286  77.3831272  34.8123002  77.5213671  78.3141756  34.7886658
  77.6003790  77.1263266  35.7234192  77.6109743  84.3378544  14.0470946
  78.2045698  84.9058914  13.5559583  77.0534277  84.9414253  14.5380926
  50.1298714  81.7734337  21.3677812  50.0164747  81.1584568  22.0924711
  49.7537088  82.5932217  21.6882372   3.1417507  14.0786481  67.0562363
   3.9077255  13.5905516  67.3583555   2.7281702  14.3961811  67.8589535
   4.5999295 105.2694321  89.0100670   4.3130937 105.3971577  89.9143028
   5.3616911 104.6939850  89.0794468  48.0170822  36.7936015  79.3478918
  48.3544207  35.9815955  78.9696360  47.4266624  37.1418738  78.6798048
  62.5252008  64.6461439  11.6782725  62.2972536  64.5408535  10.7545900
  62.2424412  63.8292694  12.0893681 107.2020626  69.4520187   9.1553450
 107.8898335  69.0500736   9.6860486 107.2794342  69.0269995   8.3011764
  32.0777965  27.4789405  57.1170855  31.5773153  27.1182394  57.8489637
  32.6724768  26.7733216  56.8627357  88.5812187  46.6652584   4.8201790
  88.3223629  46.8233824   5.7280451  88.8739967  47.5193691   4.5023686
  74.0128374  66.1848927  14.6686220  73.7851763  65.6416845  15.4231608
  74.5798254  65.6281042  14.1350079  57.7379608  72.2303247   6.1741185
  58.1124163  71.3499594   6.1428767  56.7952824  72.0868158   6.2577409
  42.3988390  42.8437042  46.5573883  42.2111750  42.5594807  47.4519491
  41.7015886  42.4529839  46.0306931  81.3204193  83.6540794  16.6260719
  82.2195148  83.3537674  16.4930844  81.0036087  83.8586140  15.7462811
  68.9182472  58.4428930  12.9838836  68.1444263  58.4767771  12.4214923
  68.6597443  58.9146042  13.7756503  90.8406162  71.2461662  35.6826234
  90.6924152  71.8785572  34.9795222  90.1697731  70.5767727  35.5480242
  65.1028347  42.2792482  17.5153673  64.9575710  43.2236290  17.4582183
  65.7492208  42.0946741  16.8339324  61.2048864  90.2586842  23.9655495
  60.4285097  89.7421169  23.7496114  61.5595388  89.8413277  24.7505736
  68.4634686  50.0879383  13.6861324  67.8556252  50.7436132  13.3442998
  68.4485722  50.2187634  14.6342337  68.4157515  84.7419262  11.9725955
  68.6538649  85.6678963  12.0186460  68.5750866  84.4987202  11.0606229
  85.8467293  97.8984833  33.9957547  85.3629017  97.1233177  33.7106872
  85.5918884  98.0167961  34.9107909  90.9095287  62.0929337   3.3495218
  90.2514267  61.4786243   3.0243185  91.1897659  61.7227936   4.1865966
  72.7924252  73.4070683  32.5864100  71.9966698  73.7982702  32.2259021
  73.0705690  72.7755117  31.9230795  94.4578171  55.4912090  13.5674679
  94.9682713  55.4717827  14.3769681  94.9094296  54.8806334  12.9848242
  38.5699415  24.2931938  83.5509968  38.4703803  24.0260410  84.4647503
  37.6731968  24.3976283  83.2329178  61.2627268  76.1775017  32.7710676
  61.5269279  76.7129850  32.0229459  61.4340830  76.7301464  33.5335994
  63.3140278  57.0745897  90.8261204  63.8427639  57.3499680  91.5750122
  63.2148790  57.8671169  90.2985668  74.5852280  51.3855457  15.8775508
  74.2773962  50.5520821  15.5214489  73.7848759  51.8616486  16.0988951
  70.6943178  79.9772406   0.7175469  71.0273504  80.8079243   1.0570778
  71.3065338  79.3203163   1.0490176  46.8844271   0.7156052  90.7706833
  46.1445856   1.1400372  91.2051105  47.4855614   0.4950562  91.4821720
   8.6667240  20.2049947  78.6024380   9.0814662  20.5442190  79.3956232
   7.9611742  20.8247828  78.4172535  71.0879183  38.3415866  21.7440581
  71.6273546  37.6494837  22.1264625  70.7560968  38.8303518  22.4972105
  28.2260656  65.7405615  37.3962736  28.7737298  65.3919077  38.0996490
  27.9859781  66.6185474  37.6924706  62.8191233  34.5996833  29.1034055
  62.2626591  34.3080926  28.3812237  62.9970312  35.5205178  28.9119768
 111.1800003 100.6060696  46.9864702 110.8092022  99.7570610  46.7458057
 111.0479546 101.1532402  46.2122536  30.7365251  85.2014542  11.5429318
  30.6230593  84.3708706  11.0808778  31.4230180  85.0257206  12.1864212
  56.3965654  39.6047068  10.4217267  56.0504627  39.9776983  11.2324810
  56.8734837  40.3257704  10.0108159  60.7334089  92.2271633  20.7284617
  60.6256962  92.1060276  19.7850859  61.5452814  92.7268314  20.8146310
  53.1213808  74.7230005   4.9326113  53.7878609  75.0407124   5.5417866
  53.5232830  73.9621019   4.5133981  87.0802879  40.5272484  27.4948192
  86.8933582  40.9806013  28.3168626  86.2440205  40.1367044  27.2411370
  37.3870707  57.6350307  23.4797430  36.6978669  57.6471758  22.8156018
  38.1374454  57.2364330  23.0389595  27.1936202  15.8360136  85.3710938
  26.6105795  15.7713270  86.1274719  27.6662540  16.6579354  85.5026054
  67.6083708  64.7584438   7.3835099  67.3072577  64.4026661   8.2195622
  68.0407572  65.5804920   7.6148397  10.3470075  18.2675266  87.2744751
  10.6634068  19.1326106  87.0141888   9.9523270  17.9078364  86.4800739
  77.4323511  51.0541439  24.4681287  78.2671309  50.6016731  24.5891571
  77.5274801  51.8684769  24.9621391  72.2722578  59.0615320  28.0049348
  72.2956800  59.9898100  28.2372761  71.4398527  58.7472296  28.3578491
 101.8948555  78.6846304  15.0362229 101.7717457  79.1703176  14.2206335
 102.4822140  77.9663849  14.8009431  60.7048988  69.7069216   2.8210148
  60.4529858  70.6247234   2.9230738  61.6327524  69.7377300   2.5878415
  43.7229681  90.6882191   0.1929531  44.1090202  90.7088184  -0.6827018
  44.3921518  90.2770901   0.7401234  69.0324497  69.8910332  16.2926841
  68.6801434  70.6599092  15.8444190  69.8832083  69.7421122  15.8800578
  77.5059700  64.5545912  31.6823101  76.7619658  65.1084518  31.4458132
  77.2883511  63.6947012  31.3225079  34.9354339   5.0545710  80.5928326
  34.0289187   4.7507992  80.5460930  35.2143693   4.8399419  81.4829731
  59.1957760  62.8280354  16.0533857  59.9775934  63.3372784  15.8396947
  58.5280895  63.1484270  15.4469383  87.2768021  79.9733829  38.5415649
  87.8666592  79.4208622  39.0544152  87.8203011  80.3052139  37.8269172
  93.6474991  58.0346918  37.7855301  93.9015675  58.8265610  37.3115945
  94.3717194  57.8749943  38.3906984  32.9932237  93.3733749  27.7268600
  32.2491908  93.9591885  27.8663898  33.4768248  93.7689590  27.0016861
  56.1090994  13.0434370  77.7719545  55.3120518  13.0365372  77.2419596
  56.1217451  12.1857190  78.1966782  47.5956917  18.8082850  90.4231262
  46.6453409  18.9138627  90.4669189  47.8265524  18.3742011  91.2444019
  75.7637024  63.3412266  22.6123166  75.9017897  62.9697275  23.4836102
  75.6514311  64.2791653  22.7669024  87.0604801 105.1733875  33.7541103
  87.6259804 104.6660614  33.1718206  86.7378139 105.8911133  33.2091451
  38.1836081  44.3256378   9.8028398  37.3792171  44.7974253  10.0187171
  38.6224604  44.8822784   9.1595733  63.6642981  17.0844424  88.9784050
  63.8013363  16.7215061  88.1033421  64.4969797  16.9438982  89.4290924
  75.9854126  93.1643867  37.1965504  76.3898563  92.3493290  37.4937630
  76.5095043  93.4302044  36.4409685  11.7821908  13.0199921  86.5816879
  11.8826389  12.1526611  86.9739628  11.0763407  12.9141080  85.9438801
  11.3657677  67.3644018  36.8436551  11.4952123  67.8397989  36.0230017
  10.4557955  67.5414610  37.0820546  83.4674168  42.4927902  17.6012135
  83.2470894  42.1334743  16.7418075  83.0919552  41.8707085  18.2243299
  76.9501305  46.5256453  32.3182726  76.1180162  46.6372442  32.7780104
  76.7813492  46.8527937  31.4346886  78.8078785  52.6244402  16.5239286
  79.6181965  52.9573298  16.9096720  78.6723852  51.7761898  16.9462359
  56.4049101  85.1355076   5.1372206  56.0115671  85.8149624   5.6848121
  57.3199797  85.4011917   5.0461924  51.9378471  31.9431424  15.4788697
  51.7602539  32.3273659  14.6203458  51.1480665  31.4434195  15.6856382
   7.5872004  19.6682119  19.3807578   8.4702146  20.0121212  19.2456877
   7.1589917  19.7670650  18.5304058  77.9527521  83.5049343  33.0315781
  77.2679615  83.9822769  33.5000134  77.8374386  83.7580299  32.1156764
  49.9780369  73.2772923   7.7805066  50.7503796  73.0852127   7.2486949
  49.9500656  72.5710869   8.4260434  47.8625965  24.8147821  18.4045815
  48.7457466  25.1795745  18.3479226  47.9775763  23.8807654  18.2295883
  54.6706867   2.5947830  86.2991142  55.3819084   2.5571111  86.9386196
  54.6277332   3.5159856  86.0426521  96.9937229  48.5664606  35.2500391
  97.9157734  48.6361599  35.4974055  96.9889355  48.7029505  34.3026328
  63.4509230  79.0793467  24.0053248  64.0105343  78.5388994  24.5629835
  63.5435772  79.9640989  24.3586802   8.1794918   2.5691742  21.9860029
   9.1005224   2.8274542  21.9509888   7.9784411   2.2779155  21.0966325
   6.9153720  22.5566983  65.1377726   6.6976243  23.4780645  64.9966955
   7.7436948  22.5770140  65.6170464  18.9964688  53.8459873   2.9528022
  18.1292582  53.9093924   3.3529979  19.2921138  52.9597139   3.1610063
  76.7144537  87.0914459  26.8277812  77.4215794  86.6124535  26.3956070
  76.0986471  87.2959042  26.1240721  36.4233184  24.2379022  26.1443186
  36.5726972  23.6491776  25.4045057  36.8434596  23.8021350  26.8858147
  49.6958303  67.1578836  25.9196353  48.9987898  66.5575933  26.1842513
  50.1779270  66.6819191  25.2434206 105.6123161  80.6533909  23.3316016
 105.1130009  81.3620090  22.9256940 105.4382324  79.8910046  22.7796125
  72.2590590  60.2196074  31.6880131  72.0437813  59.3044615  31.5080357
  71.7751265  60.7140589  31.0265326  66.7788076  67.9693842  15.8492696
  67.5462103  68.3845234  16.2429571  66.0339785  68.4439707  16.2183535
  70.2874994  56.3482904  15.5724454  70.6039953  57.1988440  15.8767867
  70.8614349  56.1276722  14.8388529  48.5348988  80.6370258  17.8172624
  48.1782961  80.8812523  18.6713243  48.4649277  81.4339828  17.2917175
  19.9818802  73.6268616   9.7041422  19.6049738  73.5482025  10.5804908
  20.9265041  73.5580301   9.8426253  39.5744109  72.2192955  48.7287188
  38.7778854  72.0311880  49.2250967  40.0468540  72.8552246  49.2659569
  77.0787477  75.5931330  29.6258998  77.6476240  75.4499102  28.8695264
  77.4753284  75.0740671  30.3255606  67.7220821  74.5227528  21.0213804
  67.7348185  73.8933611  20.3003144  67.0800591  74.1688919  21.6368628
  23.2353520  18.0744123  77.7838182  23.6299562  17.3328400  78.2427168
  23.9633393  18.6771488  77.6322460  45.0893784  42.6715708  12.6527727
  44.7842789  43.3876705  12.0956802  44.6957588  42.8484106  13.5071874
  54.3692112  42.4226332  18.0317223  55.1128769  42.9446125  18.3329391
  54.5292521  41.5491867  18.3890843  42.3712063  31.1111546  57.6603985
  41.9308376  31.0857177  58.5099030  42.6565838  32.0198989  57.5656700
 109.7918892  31.2434888  81.7196846 109.3331432  31.1038756  82.5481129
 110.7196331  31.2341738  81.9551182  46.0448551  74.9707317   7.7590388
  45.3738832  74.6478128   8.3605003  46.2228251  75.8632612   8.0555916
  68.9706707  79.4074583  29.0228724  69.7745275  79.8882675  29.2200065
  69.0371656  78.6063814  29.5425773  71.8921232  77.5957918  22.4840117
  71.1844921  76.9572783  22.3957467  72.6809025  77.1154737  22.2323227
  61.2173462  76.3687563  76.5103340  60.3024960  76.6496468  76.5299082
  61.1795521  75.4473305  76.2538719  73.2676125  80.8991718  16.7396188
  72.6057529  80.7760906  17.4200797  73.2834816  81.8443203  16.5890884
  60.6011581  10.5594563  30.4315734  60.3607273  10.6525683  31.3533950
  61.3847351  10.0098062  30.4427624  79.4655180  56.8784189   9.3556827
  79.7743893  56.0077953   9.1049969  80.1367950  57.2078323   9.9532622
  48.5914755  98.5843468  44.0503836  48.4893513  97.6406193  43.9271593
  47.7535486  98.9542484  43.7723923  64.1303444  83.5513306   8.9678395
  63.4897900  84.2279816   8.7485921  64.9684954  84.0131092   8.9899486
  72.0713854  49.2726374   8.3248496  72.1778393  50.2219343   8.2637388
  72.2776270  49.0666962   9.2365980  58.9716959  73.1333971  11.5333867
  58.6231661  73.0788946  10.6435633  58.5470819  73.9041090  11.9101405
  27.8619719  91.2802029  22.6457644  27.1138096  91.2415600  22.0499539
  27.4713635  91.3094044  23.5191512  81.6404724  64.9926138  47.3626804
  82.3418903  65.6326103  47.2416878  81.8552017  64.2843008  46.7557096
  67.1331310  61.7534256  36.6159558  66.5153170  61.2940073  36.0472107
  66.6055775  62.4231768  37.0511079  81.8346691  77.7135944   9.8484045
  81.1952019  77.8022909  10.5551219  82.4423695  78.4408665   9.9826002
  70.5946827  73.0431509  23.3256364  70.8400536  72.2832346  23.8534188
  69.7131252  72.8420496  23.0115485  68.4309912  72.8348351  15.2607310
  67.9546118  73.1326008  16.0357356  68.3923340  73.5760927  14.6563518
  84.2697620  56.4154387  12.6286995  83.6565495  57.0913887  12.9173028
  84.3503475  56.5523911  11.6847813  95.3360367  35.7088733  33.8589549
  95.1225662  34.8223948  33.5677218  96.0106087  35.5856442  34.5267940
  45.3565741 104.2108822  38.3041382  45.4330587 103.7831783  37.4512291
  44.4769239 104.5882988  38.3047938  84.9136925  86.2772465  51.0121059
  83.9590836  86.2450314  51.0747480  85.1909828  85.3662872  51.1095142
  77.7205229  40.4689693   8.6606628  77.3833036  41.3634253   8.7102401
  78.4918547  40.5346584   8.0976641  56.3844013  56.8449116   9.7730851
  56.0240269  57.1642399  10.6003642  56.9241285  57.5673819   9.4522041
  71.2015152  57.6948071  22.8346682  71.0567951  58.1209612  21.9898725
  71.7310715  56.9249582  22.6269841 104.9694824 101.9229031  88.0881786
 104.9221420 102.2400188  87.1862698 105.8188725 101.4850903  88.1438541
  40.9238958  74.7150087  33.7563276  40.2981663  74.4935703  34.4460058
  40.4744244  74.4864273  32.9427218  42.7782440  82.0924664  11.9773972
  42.8082037  82.6591110  11.2065244  43.6295509  82.2145653  12.3976374
  68.8901329  60.0953770  23.2878590  69.0275621  59.5396376  24.0549946
  68.9346218  59.4934225  22.5449586  49.9394846  82.7182102  24.6593642
  50.5868626  83.2437134  24.1892719  50.1098633  81.8195724  24.3771410
  84.3882084  68.8319111  46.1081123  84.8447037  69.6305895  45.8436155
  84.2269325  68.3654356  45.2879763  84.3103027  79.3035412  24.9940634
  83.4870243  78.9142799  25.2888727  84.5866013  79.8597717  25.7224154
  25.0234222  27.9305935  83.5824394  25.1618266  27.0806956  83.1644058
  25.5295849  28.5444999  83.0503273  39.5601916  11.4776385  57.4321079
  39.6975493  12.2263122  56.8517160  38.8252687  11.7370546  57.9878235
  84.3927670  60.4894257  52.4141026  84.3630505  60.1242542  51.5297985
  84.6244049  59.7470188  52.9721451  58.0792189  48.3690739  36.7324400
  58.7534666  48.7658834  36.1809325  58.3031511  48.6457777  37.6209927
  32.7498031  47.3526287  15.6541348  32.2073054  46.5830803  15.8265376
  33.3715177  47.3752356  16.3815904  36.1585355  68.8313913  18.0192363
  36.3192534  68.0215025  18.5034692  36.4213014  68.6296701  17.1211863
  69.1355991  43.8495970  16.5670347  68.8832712  44.4752169  15.8879483
  68.5359001  43.1129646  16.4488316  64.5508957  48.8107157  15.2203810
  64.2832994  49.5919371  15.7044435  65.2632904  48.4389877  15.7405138
  15.6620014   3.8183245  70.6099987  15.7220900   4.1066220  71.5207720
  15.1026750   3.0421594  70.6408691  62.0486784  45.4140949   0.9245801
  61.7530632  44.5094299   0.8225127  62.5515747  45.5928373   0.1299867
  80.6385136  97.5362110  17.6468205  81.2913036  98.0901051  18.0749583
  79.8441219  98.0700111  17.6319706  53.3089256  43.9861965  23.2876754
  53.7917042  44.7169256  22.9014206  53.8638401  43.6864328  24.0077066
  44.6316767  65.6147814  26.0223269  44.1757584  65.5961704  25.1808858
  44.2002106  64.9377346  26.5435505  80.2766514  48.9817715   5.7694542
  80.0827599  48.4153032   5.0226265  79.8120403  48.5786295   6.5028363
  95.3995895 103.8828278  70.0220919  94.9758148 103.1923103  69.5123529
  94.7013378 104.2367077  70.5729580  55.3750467  46.7662287  26.9916582
  56.2492514  47.1201372  27.1551871  54.7811890  47.3979568  27.3972273
  58.3697748  81.6390514  16.1784196  58.1682301  81.2673092  15.3196883
  58.5905170  82.5528145  15.9980226  62.6027060   2.4412839  72.7754641
  63.1801081   3.0614012  73.2207680  63.1136036   2.1334802  72.0268154
  40.9989309  62.5663233  27.5464225  41.8386221  62.8543568  27.1883941
  40.5437374  62.1723413  26.8022394  40.1266623  16.9950199  75.6059027
  40.1623869  17.7456498  75.0130224  41.0433245  16.7611647  75.7517481
  60.9319830  86.7257690  39.9567699  60.5118132  87.2146702  40.6643438
  60.6007814  87.1316433  39.1556430  88.7779140  73.3144808  37.4498940
  88.4329891  72.6984787  36.8035197  88.0801392  73.3950281  38.1001687
  26.2685466   9.2525971  47.6052237  27.0495391   9.7697997  47.4082851
  26.6031218   8.3757108  47.7932692  58.0791855  49.4226360  19.7653794
  58.5687351  48.6839485  19.4035661  58.5315990  50.1968527  19.4305027
 109.8465347  60.7420015  15.6729174 110.5861092  60.3738546  15.1894486
 110.2060413  60.9564877  16.5337229  24.3333983  75.8346367  10.1243079
  24.1118121  76.6670895   9.7069949  24.9165583  75.4018545   9.5007229
  80.2168179  93.7579823  81.4558125  80.0932884  93.3538914  82.3147011
  80.6827736  93.0963421  80.9446049 105.8929253   4.1544411  91.2097359
 105.9215069   4.4407350  92.1226692 106.8012810   4.2094240  90.9129238
  55.0577784  40.2548313  12.7536547  55.1341105  40.8912516  13.4645522
  54.5592785  39.5309377  13.1327391  81.1164188  72.7504492  44.7215557
  81.0262966  72.3565674  45.5892897  81.0040951  72.0194674  44.1138744
  72.8831482  63.3892727   4.9663380  73.3987284  64.1348457   4.6588814
  73.3177805  63.1140995   5.7735580  47.5800323 100.1971340  20.8860040
  47.1230888  99.3975544  21.1469603  47.0237494 100.5804443  20.2078748
  75.3031445  65.6846046  34.2018127  75.2617693  65.9267473  33.2766700
  76.2231398  65.8011866  34.4389892  38.3870554  45.8735561  88.5383320
  39.2377567  45.9843540  88.9629078  38.5643268  45.2998972  87.7928638
 109.0159988  52.4813461  12.1192765 109.4689178  52.3979330  12.9584014
 108.0862617  52.4510241  12.3448825  62.1260166  82.4829006  33.8365936
  61.5994263  82.1209049  34.5492673  62.0640516  83.4312344  33.9508128
   1.7724745  15.5265093  10.2631891   0.8423655  15.5929494  10.4793262
   2.2204717  15.6087434  11.1050725  72.7804613  73.3272123   8.5919619
  71.9970560  73.3752346   8.0440569  72.8398323  72.4059057   8.8447535
  54.5144606  45.3618002  86.4388084  54.0490818  45.0743771  85.6532860
  54.0322495  46.1342955  86.7336845  28.8933420  62.5542641  80.5099773
  28.3885837  62.4752474  81.3194275  29.7672415  62.2393322  80.7409573
  63.1333208  90.6260109  66.6990376  63.0437994  91.5144348  67.0438862
  64.0745640  90.5147362  66.5652227  57.0680046  64.8371792  83.4543991
  57.9521894  64.4907761  83.5746002  56.5074873  64.0615034  83.4347916
   2.5719568  82.8434277  44.2272472   2.7438614  83.0697346  45.1412821
   2.1375546  81.9915009  44.2690563   4.4901693  29.7979498  92.0736694
   5.3997773  29.8103189  91.7758560   3.9957696  30.1816177  91.3493729
  83.3390713  72.5123882  52.1203518  83.1180477  72.7311373  51.2150717
  84.1435909  73.0006647  52.2951603  35.5346799  17.4285018  89.7083855
  36.2831378  17.2926116  89.1273785  34.7820830  17.4869370  89.1198158
  94.4228458  69.4034481   7.8334618  94.6412563  69.5344257   8.7561601
  94.3672752  70.2882576   7.4725509 105.3909683  77.7900410  22.6096249
 106.3344193  77.6998281  22.7437663 105.2520180  77.5259256  21.7001367
  68.4700298  64.0100384  24.1726279  69.3901300  64.1624069  24.3881130
  68.3394289  64.4681883  23.3424020  34.8175709  20.2758839  90.8104778
  34.6698086  19.7120668  91.5697590  34.6253960  21.1586763  91.1266696
  97.0709038  97.7235031  42.0151091  96.6308117  97.6008701  42.8562450
  96.4086151  97.4953556  41.3627625  56.1240292  48.6602163  30.3343296
  57.0036125  49.0254974  30.2387691  56.2580109  47.8291845  30.7900357
  41.7762613  22.8304148  70.7819366  42.4513245  22.6775980  70.1207495
  41.3238764  21.9905663  70.8609104  98.3143997  79.3641233  37.1468139
  98.8809109  79.6242189  36.4204168  98.9150047  79.2125940  37.8765702
  86.3635159  73.4574699  39.1780257  85.9688187  74.0330696  38.5229468
  85.6883049  72.8040504  39.3606830  12.0856273  88.2224178  89.1045952
  11.6691864  88.8093567  89.7357178  12.8685641  87.9041290  89.5539665
  78.5373370 105.8723552  26.0432625  79.2439504 106.2354516  26.5772009
  78.9260767 105.7600599  25.1757932  81.8037224  99.3832207  21.5564299
  81.5284634 100.2034378  21.1469126  80.9922028  98.8888359  21.6715217
  39.1250181  84.3711853  34.8489380  38.6213326  84.4073486  34.0357804
  39.1164231  85.2706623  35.1761985  77.9990911  95.1387215  24.7357345
  77.9593754  95.3416729  25.6703281  78.3807325  95.9206867  24.3368387
  63.0084229  77.0704985  15.7671618  63.5595036  76.8943119  16.5297222
  63.6050463  77.0091200  15.0211692  46.1541033  94.8149586  21.4650130
  45.4431200  94.1904831  21.3209033  46.7680454  94.3516159  22.0347643
   2.5293002  92.1708775   6.1694825   2.9732451  92.7714920   5.5708134
   2.8483486  91.3038254   5.9191537 100.0123692  60.1670980  49.7824860
 100.1846027  59.5769596  50.5161762 100.7091904  60.8214283  49.8327351
  87.3189831  99.4707584  57.5422335  87.8821468 100.0198364  58.0877590
  87.3183918  99.9025631  56.6879654  59.7974777 102.2211742  35.8553100
  58.8814592 102.4989033  35.8532953  60.0630903 102.2650814  34.9367499
  78.4164286  89.7757816  56.9369698  78.1745195  88.8573265  57.0559072
  79.3325663  89.7483540  56.6609716  82.2408104  82.5712776  31.3301110
  81.4433479  82.3500347  31.8110895  81.9282818  82.9866409  30.5263472
  57.5009251  61.1390543   3.9321741  56.7660189  61.4854622   4.4382799
  57.3892403  61.5156031   3.0592677  84.9344158  94.3048477  14.2140293
  85.3474617  94.9417496  14.7971034  84.6963692  94.8106194  13.4370077
  78.3524227  92.9844856  51.1635733  77.9567957  93.8366699  51.3465595
  77.7261209  92.5488281  50.5854940  93.9029026  63.8651752  35.2737498
  94.2134762  63.2715034  35.9573627  93.2854176  63.3409882  34.7636890
  50.9659863  82.2707939  38.5673499  50.5645800  81.4690590  38.2322121
  51.1081505  82.8106117  37.7897763  21.2345552  53.5605288  91.2420082
  21.0489273  53.8023853  90.3346539  21.7689967  54.2804146  91.5772247
  47.8483868  32.5970221  80.0505924  48.7616396  32.3174334  79.9871016
  47.4109888  31.8829823  80.5143356  33.1630540  74.6584129   1.7134166
  33.3312964  75.5330610   1.3628229  33.6357045  74.6389294   2.5455555
  73.6732054  91.2092590  12.6020610  74.2722511  91.9149780  12.3584676
  72.8267574  91.4802074  12.2466254  84.1605186  78.7975597  19.0565884
  83.8900661  78.5044718  18.1864226  83.6971664  78.2164621  19.6597934
 109.1335297  25.3746295  86.3045502 108.3782101  24.8755121  86.6153812
 109.6184254  24.7583413  85.7556438  46.9458103  82.6501846  24.5529580
  47.8728008  82.8870964  24.5811677  46.8987942  81.8117237  25.0123000
  72.3916388  12.3986447  87.5611210  71.5213585  12.0273364  87.4163055
  72.3098898  13.3131838  87.2906303  84.1558456  13.1009769  33.1842756
  83.7359333  12.4014544  33.6848545  84.9512959  12.7002990  32.8336263
  86.9178009   1.4847663  31.2611103  87.6739693   1.2090401  30.7430315
  86.7443371   0.7455046  31.8438911 108.1567001   1.1876100  40.9089231
 108.3392429   1.3713783  41.8304110 108.6275196   0.3738262  40.7291508
  76.1046267  67.5111628  15.6875813  75.3896666  66.8841887  15.7969737
  76.1192799  67.6962757  14.7485662  52.8047657   5.3274626  57.1794415
  53.2778454   5.8760744  56.5537786  51.8908167   5.5982548  57.0922518
  92.3854828  67.0112801  23.0424643  91.5528011  66.9530058  23.5109472
  92.5225925  67.9497957  22.9135418  69.0381289  94.0053082  35.5716038
  68.2354689  94.5268059  35.5731440  68.8763714  93.3186340  34.9246550
  92.7821922  46.2241411  12.3984551  93.0219746  46.1278915  11.4767873
  92.0078850  45.6712818  12.5034928  23.6854696  31.0862184  87.1751881
  23.2565784  30.3820682  87.6614571  23.6911988  31.8269563  87.7814102
  95.9717560  78.8275337  63.5072851  96.0571289  79.7206497  63.8408756
  95.5755138  78.9318228  62.6422167 110.6007290  79.9875307  10.3782213
 111.3989830  79.5166111  10.1389337 110.5138493  80.6668854   9.7095245
  79.2213678  80.2964687   4.4236362  79.2665672  79.7703886   3.6252457
  79.4387960  81.1839199   4.1383380   2.5122389  94.6010303  26.2731862
   1.5933561  94.6415997  26.0081577   2.7797827  93.7039757  26.0733080
  40.4554129  59.8717594  16.1864972  40.4842758  58.9370584  15.9822106
  39.5245099  60.0634718  16.3000524  52.0768166  95.0039387  12.3114097
  51.4206314  94.8166943  11.6401482  52.0130205  94.2683029  12.9205108
  61.7234421  63.2288361  28.2774162  62.3001957  62.5559473  27.9157495
  62.2397804  63.6392975  28.9710617  74.5695877  61.1384583  13.6607420
  73.6987448  60.7652521  13.7970436  75.0432539  60.9427547  14.4691801
  13.0568171  68.5143900   4.6161923  13.8604474  67.9964733   4.5695919
  13.2441354  69.1889715   5.2689439   9.8903549  22.3700118  51.2722349
   9.3949348  22.9984140  51.7974997   9.6834767  22.5993776  50.3662443
  65.3271484  94.3168354   8.9264262  65.1104641  94.1727066   8.0052829
  65.2225876  95.2599430   9.0523422  61.0778999  88.8929558  38.0995274
  61.8645811  89.3256092  38.4314656  60.6684256  89.5444202  37.5301814
  78.5093975  73.9035559  13.9717519  79.0941954  74.6209860  14.2157471
  77.7049923  74.3367720  13.6862850 111.0105228  94.8530102  36.9231367
 110.9722805  95.5575180  37.5699997 110.6536770  94.0902996  37.3782992
  83.4485722 101.6687202  30.1193357  83.1058311 100.8279324  30.4223609
  82.7816772 102.3056793  30.3757882  42.0372772  66.6099310  17.9842961
  42.6033640  65.8658075  18.1893826  41.1489820  66.2578249  18.0407715
  83.4647179  76.7599010  20.8408165  83.0082130  77.1616650  21.5800166
  84.0054893  76.0761976  21.2362289  69.7612095  79.3015289  13.5243869
  70.2464628  79.7208881  14.2349482  70.1415491  78.4255791  13.4589684
  60.3247595  69.6735716  20.8737350  59.7528362  69.9797010  20.1698732
  60.8459234  70.4409838  21.1097479  96.1646080  97.5282669  30.0735641
  95.2572727  97.6106930  30.3671432  96.1674500  97.9078865  29.1948628
  86.7367935  64.0992880  15.5484056  86.1254025  63.3795500  15.3921592
  87.1588326  64.2431927  14.7014034  58.1517506  77.3963022  40.7394886
  58.4334469  76.6073227  40.2764702  58.7043047  78.0925751  40.3843641
  72.4564219  88.9553928  36.8414855  72.0310307  89.5340347  36.2086749
  72.3920965  88.0841351  36.4503384  68.5530519  62.8955841  21.0093594
  67.8700352  62.7846718  21.6707397  68.2346106  63.6064768  20.4530716
  59.6381426  79.8397112  39.8661971  58.9733601  80.4943562  39.6523452
  60.1784039  80.2572727  40.5370140  63.4473228  84.5325947  45.0819874
  63.4397173  85.3595734  44.6000385  64.2263079  84.5852470  45.6357384
  92.3114109 101.6920853  20.5166531  92.9274178 101.2642193  21.1113834
  92.2977734 102.6055241  20.8024526  71.0977221   7.6756674  30.8998370
  70.6211519   7.0169812  31.4050579  70.7671642   8.5128039  31.2256670
  36.3064647  94.2354107  36.3351321  35.8305430  94.2947388  35.5067539
  36.9041657  94.9829483  36.3220406 107.9689121  19.8521745  27.4308968
 108.2808971  18.9573479  27.5657558 107.7148247  19.8807752  26.5084815
 109.2826557   5.7718271  27.4752378 109.1818237   4.8239070  27.3885727
 108.8654613   5.9816742  28.3107877  63.5368204 102.3535442  30.0212312
  64.0021849 102.2778511  29.1882014  63.6522770 103.2684612  30.2778029
  11.3504744  30.9518385  89.4955349  11.0458803  31.5395355  88.8041210
  11.1990476  31.4373136  90.3064728   2.6221538   2.5995934  16.3611603
   2.7848354   2.6123062  15.4179716   2.4848691   1.6751668  16.5680909
  68.8490772  98.2250500  18.9219761  68.6386919  97.4295807  19.4110620
  69.1439104  97.9099464  18.0675638  81.3274384  79.3630791   6.5825826
  80.9906197  80.2547455   6.4946961  81.1446953  78.9535856   5.7369155
  94.5628548  20.0309014  28.1731629  95.4308033  19.7941709  27.8462672
  94.5014477  19.5982218  29.0247774  62.9014826  54.4260168   3.7546468
  63.4331274  53.7193441   3.3883208  62.1240425  53.9868021   4.0994796
  70.1465607  90.7170391  31.9241762  70.3260660  91.3625240  31.2405443
  70.9979296  90.3202343  32.1084142  25.9211159  36.8865657  88.4247589
  26.2279987  37.4514246  87.7155399  25.4694462  37.4797702  89.0250301
  79.0469122  96.6806221  38.4370565  78.2647181  96.9754314  37.9706931
  78.7248945  96.4075184  39.2960954  58.3949947  89.0452862  68.6175346
  58.6112356  89.5707989  69.3878031  59.2433977  88.8150120  68.2388258
   1.4919397   0.9727252  30.3795362   1.2861477   0.0392932  30.3286767
   2.4272743   1.0228656  30.1823878  45.3470039  33.3408999  91.6819000
  45.0685883  32.4782515  91.9893932  44.5319033  33.8305521  91.5719700
  93.4251785  87.6247692  14.8933280  92.9604149  88.4100342  15.1824224
  93.5926247  87.7744770  13.9628541  47.0967913  99.9655056  40.6766081
  48.0081034  99.8376751  40.9400415  46.9834471  99.3908310  39.9195528
  17.1889687  16.8344843  37.3540139  17.5331128  16.7386961  38.2420588
  17.5920963  16.1188912  36.8624401  71.5313625  79.8858929  30.3492832
  72.3104620  80.4397678  30.2996421  71.7647505  79.1997147  30.9745216
  63.2399654  62.5573397   4.3081382  62.7738667  62.6839924   3.4817332
  63.1631947  63.3988380   4.7578222  50.0880241  87.2361088   9.5187521
  49.4581413  87.8890133   9.2134523  49.7110653  86.3972282   9.2534119
  75.4184008  83.5408592  13.1600189  76.2669706  83.7120342  13.5685015
  75.1582384  84.3828392  12.7863801  19.1193569   3.6864105  82.6179504
  18.2385385   3.5852087  82.2571850  19.1449344   4.5881438  82.9380322
  74.3643665  53.2517529  19.5066535  73.5028839  53.4488249  19.8744106
  74.1876602  52.6247311  18.8053298  68.2058954  94.9266815  38.6406779
  67.7906895  95.4895115  37.9871821  67.9574871  94.0385151  38.3843827
  67.0540190  69.8757935  51.0747004  66.4887285  70.6116343  50.8397198
  66.6600657  69.5152569  51.8690872   5.4934639   2.6128298  44.0034914
   5.7648408   1.6954865  43.9708185   5.1323706   2.7868858  43.1342697
  20.1663661  45.5261326  67.9692698  20.4651976  44.7223139  67.5440502
  19.8037422  45.2341127  68.8056087  35.1916933  56.1806631  70.7506323
  35.7613111  55.7784081  70.0949192  35.6042337  57.0229530  70.9419298
 105.5796528  91.5133858  26.9639587 104.9330997  91.7110538  27.6415467
 106.4071846  91.8355083  27.3212600  56.8078136  85.3997421  19.8797965
  56.9228458  85.7007504  20.7811260  57.4859476  84.7347260  19.7609794
  31.3412309  41.0007048  89.3600655  31.7403889  41.8517637  89.1794968
  31.9309902  40.3677940  88.9503956  88.0310726 104.6218872  67.9790783
  87.3293781 104.6290207  67.3280764  88.6147308 103.9186478  67.6944256
  59.9916601  73.1165123  14.4986403  59.6130991  73.9885235  14.6105397
  59.3505478  72.6433420  13.9682484  75.0203848  55.6223917  22.9643750
  75.2752304  54.7244263  23.1763697  75.7216454  56.1626768  23.3284593
  54.0721416   5.3504211  24.8344707  54.0791559   4.4423881  25.1372242
  54.9253273   5.4704553  24.4174623  71.7698860  82.2805500   1.6245891
  72.1741676  82.1968079   2.4881729  72.4569035  82.0178699   1.0120198
  93.6825752  54.1836739  31.8158102  93.5343647  53.7826347  32.6722169
  93.7039566  55.1242304  31.9922543 107.2425747  11.8773055  61.3529205
 107.5686741  11.6816998  60.4744959 106.6382408  11.1613631  61.5489864
  77.0562458  65.4069424   6.3535917  77.1907091  65.1338768   5.4460746
  77.0951366  66.3629007   6.3243383  70.7602596  71.2654543  40.3688049
  71.5987158  71.0386896  40.7710505  70.2301264  70.4734039  40.4573727
  22.2452283   0.4897404  30.9184980  22.0203924   1.4200032  30.9014177
  22.1986365   0.2490221  31.8437648  82.4486542  61.5449524  56.6621256
  82.7857590  62.4407578  56.6735792  83.2262421  60.9951782  56.7587662
  84.8228264  82.1980000  26.4821243  84.6160412  81.6984272  27.2719932
  84.0374184  82.7193165  26.3159728 108.9369678 104.6018124  80.7238865
 108.5911179 105.4164600  80.3592205 108.1951046 104.2127705  81.1870480
  42.3475599  99.7817802  51.9557381  42.3257256 100.7098484  52.1890783
  43.2457590  99.6297646  51.6618729  73.8488770  69.7715092  80.9102631
  73.3278513  69.2574072  80.2934551  73.2151651  70.0862360  81.5549278
  52.0613623  75.6519413   1.1652813  52.8088474  75.8115387   0.5890648
  51.3096905  75.6034184   0.5746271  50.6521082  96.1110306  44.9257898
  50.0576782  95.7818604  44.2516041  51.0759258  96.8685341  44.5223093
  92.0437050  63.3102798   7.4767053  92.3811722  63.6598206   8.3014256
  92.4098873  62.4275255   7.4230152  59.0193701  78.8870668   4.3542436
  59.9310827  79.1322184   4.1964227  58.6650658  78.7087154   3.4830984
  96.0621643  13.3932745  30.0735426  96.1059475  14.3140018  30.3315663
  95.2809429  13.0581200  30.5135417  82.1344471  74.3470097  40.0325537
  82.8846645  74.7703600  39.6151972  81.8583584  74.9634075  40.7108355
  98.9504719  44.5006943  85.7175159  98.1106377  44.2434502  86.0979462
  99.4326305  43.6791325  85.6237602  82.5682449  76.6532469  46.1440039
  82.6509762  76.7665339  47.0908737  83.4050560  76.9571686  45.7924080
  12.9070330  94.1234303  21.2272406  12.5024796  93.6636925  21.9629121
  13.8455486  94.0935993  21.4130664  78.0140638  68.6023140  17.5006402
  77.4433327  68.4166336  16.7549729  78.1524229  67.7502966  17.9143560
  82.4824810  86.4095497  19.6597266  82.5086308  87.3475838  19.8485100
  83.2814693  86.2435532  19.1594362  57.6082516  56.9416094  89.3824863
  57.4845028  56.9528246  90.3315830  58.5184765  57.2096395  89.2564392
  75.0612211  68.9611387  33.3866096  74.2122507  69.2107248  33.7515640
  74.8878431  68.1490707  32.9104567  91.2714767  88.6987495   9.3344295
  91.6891193  87.9432392   9.7479516  91.5828800  88.6790466   8.4295148
  53.7151575  30.1078200  33.6803794  52.8818274  30.5785728  33.6941528
  54.0177059  30.1298237  34.5882392  62.4244595  50.7806253  12.3212373
  61.8284178  50.4837513  11.6336071  63.2768440  50.4255247  12.0691061
  15.7596385  11.3954401   0.2735162  15.6796265  11.8900824   1.0890887
  16.7026854  11.2862504   0.1511527  78.1718302  72.7163935  22.9297686
  77.5865841  72.0724869  22.5308847  78.8175011  72.9070902  22.2493458
  21.0315943  70.0179243  34.4577146  21.0948539  69.0670061  34.3683863
  21.7474556  70.2511120  35.0488162  19.6473765   9.7578186  40.3034306
  19.9041283   9.2188567  41.0516500  20.0903702   9.3564093  39.5558619
  88.3466530  71.1890125  30.6739450  88.4581375  72.1194077  30.8693075
  89.2238998  70.8177471  30.7679415  31.5346169  93.1474495  78.0519056
  32.2052598  92.4746799  78.1695747  31.1200261  93.2252312  78.9111471
  29.6676111  43.7620306  91.1795044  29.5144796  42.9839706  91.7156029
  28.8223457  43.9384222  90.7664204  59.5740366  47.2355700  18.9681840
  60.3631020  47.7773571  18.9768827  59.4717741  46.9760513  18.0525291
  74.3132830  50.3644037  27.2645330  74.6709776  50.7717609  28.0534244
  74.0379572  51.1008024  26.7185068  85.2346230  57.9641104  38.0822158
  85.8690357  57.7160263  37.4097538  85.4374981  58.8790607  38.2769942
  80.8391666  83.1353760  23.9015031  80.8587646  82.9559612  22.9614735
  81.4370155  83.8739491  24.0168953  65.5403233  91.2940216  28.6725116
  65.7722187  91.1301327  27.7584028  66.0744429  90.6746674  29.1698551
  67.2584581  74.2333031  12.3823428  66.7116404  75.0101328  12.2650218
  67.9292440  74.5049667  13.0088258  70.7458639  60.8649588  34.4978952
  70.2882814  61.1390257  33.7030745  70.9890509  59.9541044  34.3322539
  76.6178465  60.9897232  11.1256075  76.5504313  61.9317770  11.2812519
  76.4663410  60.5937338  11.9837844  76.2351465  68.6805868  26.4359474
  76.9087219  68.1642485  26.8785739  75.4119349  68.3821249  26.8225646
 105.5253124  94.4995308  15.3170717 104.9908924  95.2419472  15.5989444
 106.3665199  94.8876572  15.0763261  63.6607599  99.8471546  31.8225694
  62.7119970  99.7380733  31.8872023  63.7778044 100.5561066  31.1901689
   8.0088437  12.4166512  18.9356482   8.6698174  12.3377848  19.6234894
   7.1832830  12.5242293  19.4079912  37.2223425  42.4593115  22.7371192
  37.1780753  43.1024408  22.0295477  36.3270140  42.4096537  23.0720091
 106.8083858  71.2050915  24.2496657 106.2418365  70.4430866  24.1288161
 107.5033188  71.0921240  23.6011767  75.1099253  30.2841830   2.5392652
  74.1614437  30.3523111   2.4298501  75.3650379  31.1149812   2.9404187
  72.5793743  56.6852188   6.8834263  73.2267284  56.0004997   7.0517164
  73.0221844  57.4983597   7.1262300  79.1578150  64.8167181  45.2434874
  79.3604946  64.0003633  45.7003450  79.4007730  65.5046463  45.8631372
  73.0932331  65.3273106  54.1220808  73.6973572  64.6225834  54.3558073
  72.6847124  65.5772877  54.9508476  84.8989487  51.5138388   8.0804873
  84.1555595  50.9120941   8.1191820  84.7618961  52.0123529   7.2749233
  74.1736364  93.4971333  39.4289017  73.9072609  94.4045353  39.2809081
  74.7291279  93.2851982  38.6787391   6.7784375  72.3505402  29.0422106
   5.8548743  72.1569920  28.8815784   6.8938375  73.2466698  28.7261939
  73.3331633  91.7581367   0.1358392  73.6425877  92.4604607  -0.4362057
  73.0887461  92.2011948   0.9483624  70.8123064  76.8219757  34.7392917
  69.8901320  77.0378351  34.8779893  71.2829351  77.6234722  34.9680829
  19.9287343  32.5106144  86.2804508  20.5840611  33.1899929  86.1216354
  19.5836604  32.3030233  85.4120827  72.0135355  70.8646250  17.9144681
  71.9602871  70.0101328  17.4864101  71.9650888  71.4956760  17.1963716
  52.9534292  42.7125454   0.6527571  53.2821178  43.6104298   0.6974596
  53.7402678  42.1679831   0.6765354  64.8604393  85.2991581  12.1603453
  65.0224352  84.3639851  12.2846234  65.1063442  85.6978416  12.9950964
  85.0204372  76.6302347   1.9799407  85.1714706  77.4435806   1.4983961
  85.8974743  76.2885380   2.1539727  35.7059550  99.7538280  23.3726263
  36.4556217 100.0880623  22.8801632  35.8777428  98.8165665  23.4635592
  91.6167164  81.7068100  34.0609002  90.8802032  81.7747593  34.6684861
  91.3513756  82.2286034  33.3035660  90.5771732 100.3667545  14.2223728
  90.4241371 100.6578064  13.3234298  90.3137016 101.1112022  14.7632980
  98.0613995  61.0698557  45.3199339  98.3565712  60.1777363  45.5022335
  97.3803425  60.9657145  44.6554518   7.7896369  28.7430143  27.3386097
   7.9496157  29.6725011  27.1752381   8.1808954  28.5798621  28.1968212
 102.1769905  48.3507204  19.4967639 102.0425129  48.5324049  18.5666358
 103.0853844  48.6036253  19.6613193  87.9968929  91.7983818   7.5074214
  87.2234535  91.9238091   8.0572253  88.7360668  91.9011021   8.1068403
 110.5178165 102.6257133  74.6391678 110.0107193 101.8173981  74.5635796
 110.3394222 102.9383087  75.5261230  67.6669121 105.4473495  58.6518192
  68.5216188 105.4979038  58.2238579  67.6724005 106.1665440  59.2834473
  65.8762550  97.9856205  54.4015169  66.3202858  97.7821541  53.5783100
  65.4596424  98.8332176  54.2458105  17.5125039  11.4045203  29.7438622
  16.7265511  11.9159782  29.9360085  17.3859429  10.5832779  30.2190208
  90.3822231  93.4206963  49.4681215  90.2924061  92.8302956  48.7200689
  91.3147545  93.6351204  49.4933844   8.6466354   6.6023785  48.3476830
   8.5361308   6.6850764  47.4004889   8.5987425   7.5010467  48.6737728
  93.5586929  88.6597729  35.6716323  94.4846630  88.5848141  35.9022975
  93.1276131  88.9088249  36.4891696  89.4124794  66.5030241  16.4453435
  90.2079773  66.8061590  16.0077119  89.3076992  65.5979776  16.1518538
  91.2170696  94.9066448   1.0212360  92.0245457  94.6085739   1.4400101
  90.8063412  95.4765797   1.6714001  23.9350510  13.3478868  11.7875099
  23.7233472  13.0068672  10.9185338  23.0877185  13.4320152  12.2247529
  47.0444727  52.1180773  82.3662949  46.7637920  51.2660122  82.0324707
  46.3741159  52.3572063  83.0063438  89.9674511  96.9405270  17.6235342
  89.0191555  96.8131447  17.6507461  90.0924969  97.6832199  17.0327747
  99.2216587  99.4117355  26.3823605 100.1238251  99.2313576  26.1181784
  99.2972946 100.1125145  27.0299864  76.1412287 103.9143467  39.9510169
  75.5733299 103.1739807  40.1645184  76.3651228 103.7864399  39.0292025
   4.7743213  73.3710766   2.4852026   3.9040554  73.1561041   2.1495576
   4.6121141  73.7359190   3.3551511  70.4609060  64.3542719   4.3839994
  71.3186312  64.0900517   4.7167560  70.2928734  65.1999760   4.7996700
  97.3796940  97.0221519  23.1359577  96.4641857  97.0625305  23.4124470
  97.8762913  97.0021152  23.9540195  67.8316832  93.8754559  43.8888836
  68.2253981  93.8637066  44.7612858  68.3500767  94.5151711  43.4007549
  53.9737320  62.6847124  81.2669373  53.7385321  63.4379864  81.8086815
  53.7981796  61.9256306  81.8229961  93.9528942  89.4824886  25.5413580
  94.8790646  89.3711662  25.3267694  93.9418411  90.1735973  26.2035322
  97.1676922  88.4901142  34.2694569  96.6009998  88.4848022  35.0408602
  97.8936577  87.9110336  34.5015812  87.6583481  77.7283764  46.2160635
  87.7864075  76.7882204  46.3423109  88.5216236  78.1109095  46.3730574
  62.6731253  74.7703028  53.3231783  62.8446770  75.6153965  53.7386513
  62.3366213  74.2197371  54.0301943  60.4347372  86.4317799   1.0889935
  60.2158022  87.1815395   0.5356781  61.2885427  86.6507530   1.4622219
  29.0506816   1.7789100   0.1988453  29.1456079   2.7159148   0.3698502
  28.7092829   1.4193906   1.0176394 100.6923103  80.6116199   6.3114256
 101.5125370  80.5590916   6.8020326 100.0444031  80.8928680   6.9574523
  74.3050861  90.9781170  21.2033510  74.8712540  90.2099419  21.2781739
  73.5042667  90.6467533  20.7970047  24.1370082   1.6569382  84.2122650
  24.3066072   0.7458431  84.4517899  23.1831098   1.7174768  84.1608143
  57.6282597  81.0860729  32.5296354  58.0306149  81.3518333  31.7027664
  58.0670881  81.6198730  33.1919980  94.8182297 103.5718632  44.4113588
  95.2374363 102.7446938  44.6485901  94.1069126 103.6700630  45.0443077
  98.9908504  94.0800381  11.4368773  99.7263432  93.8547802  12.0065522
  99.1662025  93.6094952  10.6219733  51.4238787  84.3078613  19.0107083
  51.1359692  83.4694290  19.3717992  52.2417116  84.4983387  19.4701600
  23.9354491  37.8135300  71.6315269  24.2146659  36.8983006  71.6065550
  24.1070294  38.0918264  72.5311613  76.7861652  87.9142570  23.9501500
  76.2159157  88.1601810  23.2217479  77.1508360  87.0672894  23.6934423
  68.2126522  88.4031963  34.0600109  68.8400745  87.7968311  34.4535851
  68.7407923  88.9505959  33.4789395  38.4258032  11.8846464  84.3588924
  39.2698741  11.6344690  83.9831352  38.0257177  12.4471688  83.6957645
 101.5753651  60.9950733  27.2252488 101.4227390  60.3048706  27.8706598
 101.6233921  61.7995596  27.7417088   9.3694419 103.8293076   3.9208844
   8.4262818 103.6897469   3.8359988   9.6396583 104.1656208   3.0664217
  53.5381031 103.2491016  37.8647518  53.7130928 102.9301262  36.9793916
  53.8389683 104.1577435  37.8558016  92.5261879  92.1500111  56.8535089
  93.4335518  92.4218082  56.9915247  92.0109653  92.9373741  57.0291376
  81.1084366  79.0285826  57.0905352  81.2786770  78.2708788  57.6501226
  80.1762581  79.2101192  57.2102356 104.0632439 104.1633797  22.4470615
 103.6796665 103.8177013  23.2530427 104.8294640 104.6572113  22.7390671
   7.3651755  93.8086224  10.1617932   7.1520299  93.0998707  10.7688212
   8.2646686  93.6278534   9.8889029  53.8645649 105.3654003   2.1672739
  52.9451609 105.1724434   1.9837323  54.0848684 106.0763454   1.5653937
  44.4001818  43.5309553  84.0547562  43.7323475  44.0930033  83.6618996
  44.1908073  42.6524830  83.7374592  64.2914438  92.9843140  39.9859619
  65.1639986  93.0824947  40.3670597  64.3310690  93.4775257  39.1665745
 109.3906307   5.3978807  46.6946507 110.1539612   5.7337117  47.1645212
 108.8768578   6.1775839  46.4841032  21.0455751  27.4518776  71.9738960
  21.8784690  27.6960731  72.3774910  21.2826300  26.8087077  71.3057899
  76.4988089  90.5131435  36.8245220  77.3724270  90.1350975  36.9250274
  76.3765669  90.5854321  35.8779168  72.0214939  80.0190735  21.3178921
  71.9497299  80.6573582  22.0275998  71.8253136  79.1782856  21.7311835
  15.2559888   6.8325830  34.8801064  14.9314475   6.7321610  33.9852190
  15.7226932   6.0161644  35.0586557   0.9379493  13.9026463  65.2540302
   0.5877295  13.0340862  65.4519749   1.7819844  13.9289868  65.7047462
  78.0128956  76.8535805  44.9664497  78.3143044  77.6687002  44.5652437
  78.8157368  76.3655567  45.1495028  84.4258308  85.1149368  18.0624878
  85.1192188  84.5709705  18.4360516  84.1446304  84.6406364  17.2800612
  75.8773327 102.3380089  27.3992920  76.2888098 101.7192078  28.0026221
  76.5366697 102.4859333  26.7213392  79.4733143  99.3080425  38.6203122
  79.4730330  98.3509636  38.6050940  78.5480356  99.5469952  38.6750007
  37.4398875  83.8329887  11.9464612  37.1066117  84.0328312  11.0716927
  37.1857190  84.5875454  12.4777603  30.1228809  28.6597610  28.1945610
  29.8085475  29.0298343  29.0194702  29.3941879  28.1254959  27.8786540
  28.7279987  12.2061515  42.0814800  28.7285638  12.1537066  41.1257172
  28.2079196  11.4532518  42.3623562  55.1178074  25.9632564  33.8899755
  55.5416441  26.7408490  33.5267282  54.9660683  26.1807728  34.8096991
  19.8142445  39.4274211  88.9108944  19.7603810  39.7315431  89.8168945
  19.5213020  38.5168290  88.9460945  11.3037741   2.5645414  14.1508532
  11.5346158   1.6836606  14.4457984  11.4755118   2.5545287  13.2092381
 101.2983799  62.7543211  18.6461389 101.0986900  63.2549095  17.8550839
 101.5320301  63.4168863  19.2962527  95.2905750  87.6930332  28.1932831
  94.4787502  87.1939373  28.2831764  95.0287342  88.4977245  27.7459002
  97.4515152  73.5589027  65.3508139  97.0996475  74.3882132  65.0273037
  98.1558323  73.8137817  65.9468079  87.6977062  78.0145025  25.7894206
  87.5656796  78.3581972  26.6729784  86.8233109  77.7526808  25.5011344
  96.7722988  73.8343287  31.0115504  97.0359039  74.1772413  31.8654585
  96.8392467  72.8839636  31.1040497  68.1651688  86.1032581  28.6320210
  68.9967394  86.4606476  28.3205938  67.5528288  86.8367481  28.5748601
 105.9419727  35.8941746   4.8404023 106.4303970  35.8689189   5.6632239
 105.6591511  34.9902606   4.7019109 110.8242416   2.0755318  36.6155314
 111.4715385   2.2915266  35.9442711 110.1285934   2.7217397  36.4941931
  95.7207584   3.5919642   0.9918139  94.9687386   3.9222100   1.4833780
  95.7656002   4.1526723   0.2173286 109.6292686  62.5391245  43.0962086
 110.4482555  62.5402451  42.6007318 109.0464115  63.1110334  42.5967836
  23.7693596  30.7570601  82.0220852  23.4846044  31.0341930  82.8929138
  22.9959750  30.8709216  81.4696884  81.8286896  71.6808748  21.9404578
  82.0131397  71.9421244  22.8426528  81.3593769  70.8506870  22.0226908
 105.7774925  98.3288574  23.5353255 106.0741520  97.6078987  24.0907049
 106.3557911  99.0578079  23.7599063  95.3089721  61.9962833  -0.1065937
  94.8618324  62.3435984   0.6652054  95.1718099  61.0502408  -0.0573746
  14.8225307  36.5290308  88.3022881  14.3095672  37.2681999  87.9755974
  14.6606612  35.8276677  87.6713181  53.7995529  51.1756516  87.0949841
  53.7618780  51.9358969  86.5146065  53.3443594  50.4844284  86.6141033
 100.5083275  27.2894478  34.2295456 101.1134624  26.8332791  33.6447740
 100.3769207  26.6831994  34.9585366 103.4982014  87.8764439  79.8812294
 104.2840767  88.1006718  79.3828917 103.5251617  86.9224358  79.9545383
  19.4726717   1.1287172  34.2580938  20.2858448   1.0319391  34.7536898
  19.5901740   1.9380836  33.7607479  61.8269539  71.9768000  21.2917709
  62.1452999  71.9514084  22.1941257  61.6526127  72.9031467  21.1252761
  26.8195152  41.9922304  16.1066747  26.6975212  41.0997438  16.4304304
  26.9500065  42.5176382  16.8960762  43.9645576  52.3492622  15.2887368
  44.3413639  52.4623394  14.4161201  43.3477879  51.6237926  15.1911223
  77.2600317  26.3875222  10.0355625  78.0484104  26.1246419  10.5105174
  77.2138739  27.3361754  10.1545465 103.1223774  69.0714073  79.4150543
 103.8302517  69.4747305  79.9175167 103.1239128  69.5400572  78.5804272
  85.8027649  39.6012020   7.1922415  85.1142025  39.9534774   6.6283202
  85.3365517  39.2628860   7.9567134  55.0019550   6.0887867  29.6142554
  54.1212177   6.0355717  29.2431736  55.5151129   6.5466428  28.9484715
  49.7135258  30.4191756  36.3895893  49.3885612  29.9620199  35.6139374
  49.3850088  31.3133287  36.2958002  87.7289581  74.1807985  88.3546162
  88.3077335  74.3245602  89.1033363  87.7674198  73.2369661  88.1999111
  29.9512553  10.6410313  21.1887217  30.6238794  10.0432622  20.8624101
  29.7632718  10.3296971  22.0741391  25.7372737   2.7326429  82.1486378
  25.0991702   2.2991982  82.7153683  25.3084493   3.5463393  81.8836117
  80.3722286  46.8893099  88.9712620  80.6902313  47.5255728  88.3307266
  80.9313869  46.1226940  88.8452816 105.4954052  83.1682396  87.5623989
 105.1469421  82.7947807  88.3719254 105.9327412  82.4351788  87.1292686
  43.7620974  42.7919340  26.5016890  43.7477732  41.8581438  26.2917781
  44.1463423  43.2053423  25.7285905  68.4022522  15.4572213  22.5596738
  67.7292347  15.0721478  23.1209254  67.9725742  16.2090397  22.1517777
 109.0810204 103.6203098  12.2988367 108.9558792 103.2904911  11.4090085
 109.4412518 102.8763676  12.7815628  62.1070147  33.1272769  34.3480515
  62.1883631  33.1798458  33.3957648  61.4712429  33.8068867  34.5720077
   5.9685856  23.1114554   2.3946585   6.9245553  23.0882597   2.3520511
   5.7742977  23.7784338   3.0531582   2.5404534  69.0113974  20.7410216
   2.6579839  69.8694420  20.3333759   2.0584761  68.5010576  20.0902629
 110.6193542  90.9505844  24.5284796 109.7362518  91.1546803  24.2207336
 110.4830456  90.3990173  25.2988195  50.5688190  46.4890575  17.6553142
  50.8442688  46.5160465  18.5716271  50.9000921  45.6519270  17.3301888
  30.1805615  39.5030069  43.2582569  29.5057583  40.0870371  42.9121685
  30.5992746  40.0075245  43.9556646  44.0214825  10.5771863   8.8145971
  44.8920918  10.6103873   8.4181458  43.6706400  11.4598870   8.6963540
  56.7820072  42.2965765   3.6575732  55.8870935  42.0695066   3.4049878
  56.8300104  42.0809984   4.5889452  72.0011997  47.3613644  25.2979898
  71.6005516  48.2165909  25.1420832  71.5330744  46.7670822  24.7115421
  93.6680889  55.9670305  83.7960052  92.9810333  56.6048908  83.9891815
  94.0559483  56.2736130  82.9763603  51.0246515  28.7656164   8.3806872
  51.8684292  29.1147351   8.0936491  50.3983355  29.0910816   7.7341348
  45.2637768   8.4162897  30.8009624  44.6365356   9.1264307  30.9369564
  46.0841656   8.8594890  30.5846906  60.5117846   2.9752558   4.5317155
  61.3922548   3.3305514   4.4101971  60.5909014   2.3921315   5.2866578
  74.8030138  50.5287075  24.0984035  74.6756268  49.7289276  24.6086550
  75.7027483  50.7938194  24.2892528  59.2170620  28.2063222  35.6429362
  59.4078922  28.4876084  34.7481203  58.6699915  27.4279332  35.5377913
  70.9159327  44.5106840  27.9946995  70.2981615  44.3946600  28.7165928
  70.3628445  44.6113777  27.2199845 106.7710781 104.3648052  10.2172291
 106.5371704 103.9462280  11.0456657 107.5893307 103.9413834   9.9575859
  54.8528576  31.0734940  17.5868988  54.3524313  30.4885650  18.1558084
  54.7300482  30.7154250  16.7077327  55.9877205  61.3756943  23.8548064
  56.0500574  60.5380154  24.3137598  56.8209982  61.8105698  24.0358257
  23.9333296  21.9311190   9.1717130  24.2304826  22.7119970   9.6387875
  24.7372580  21.5266395   8.8456345  23.5339022  16.7120731   7.4055445
  23.1954026  17.1944904   8.1598145  22.9081678  15.9992743   7.2766733
  11.3608503  85.2672482  24.1269445  12.0310676  85.9160995  24.3414927
  11.0399818  85.5305481  23.2644200  19.6571839  66.9793463  83.1626701
  19.9998903  66.4660501  82.4310207  19.1598523  67.6844978  82.7483559
 110.0282192 103.3036613  58.2273245 110.2389526 103.5407543  57.3242140
 109.2986774 102.6888847  58.1495571  43.9206266  27.6643085  11.5546393
  44.2079735  28.5771775  11.5728605  44.0247536  27.3986268  10.6409645
  27.9136300  53.4416008  10.6203234  28.5146689  53.0724287  11.2673903
  28.0322742  54.3883991  10.6959867  45.3684902  46.1215115  12.7602720
  46.1591005  45.5821180  12.7453148  44.6645880  45.5216503  12.5134659
  51.0020924  46.6477203  13.1688905  50.6147337  45.9584045  12.6294196
  50.4889727  46.6363335  13.9768553  97.1266460  68.8223314  86.7520714
  96.5322685  69.5439196  86.9576359  97.3814011  68.9737511  85.8419037
  30.8725286  19.1452444  19.4144487  30.8108497  20.0826979  19.2311263
  30.4657602  19.0421629  20.2747655  17.5889790  20.0135255  86.4412498
  18.4437883  19.6940994  86.1522865  16.9712698  19.6544135  85.8043003
  14.1116107  98.5889339  82.2165108  13.3250785  98.2975101  81.7553520
  14.7809672  97.9479408  81.9770908  29.1121316  19.3424773   7.3768997
  28.8586831  20.1879168   7.0064539  28.9988804  19.4510949   8.3211499
  21.8486667  29.9366355  44.2778158  21.9576883  29.1640162  44.8322582
  20.9284377  30.1784921  44.3822956  59.6880293  76.2322807   4.9254405
  59.7480917  77.1820784   4.8229277  59.4009209  75.9165812   4.0686256
  63.7074995  35.2310395  35.8419394  64.5542908  34.9808526  36.2115145
  63.3653355  34.4233465  35.4588127  25.8266711  11.1117065  11.0820758
  25.1877379  11.7483985  11.4024174  25.4370975  10.2603936  11.2814009
  54.2189837  45.6312227   8.0327249  54.2158556  46.2033176   7.2653073
  54.0896797  46.2234688   8.7735045  12.8431189  22.8728104  82.6361656
  13.3602202  22.7099466  83.4250355  11.9350505  22.7621293  82.9179287
  76.6234922  10.1183081  26.8266082  77.1592474  10.7382154  27.3214984
  76.8392611   9.2638123  27.2001243  77.2779560  32.5721049  14.6395206
  77.6045656  32.9326582  13.8151646  76.7064619  31.8509459  14.3757892
  83.0786800   2.8040746  24.7152114  82.7224255   1.9193226  24.7959995
  83.9660835   2.7380812  25.0679088  62.3347712  37.3641396   9.6809632
  62.5608826  36.6733098  10.3037488  61.6922569  36.9599867   9.0978074
  45.5241823  13.8892281  30.5196166  45.5347347  14.6902573  29.9957156
  44.7128248  13.4485698  30.2671194  98.7547684 102.5287533  76.7203760
  98.5898495 103.0198002  75.9154510  99.1097164 101.6914845  76.4216948
  30.7623696  11.5889931  11.4827573  29.8098946  11.6396606  11.4024103
  31.0432005  12.4988067  11.5807605  75.7417488  26.3831282   5.3659362
  75.1014709  27.0891809   5.2778131  76.5342999  26.7255473   4.9525994
   2.4883425  85.8721256  63.3398628   2.6803330  85.8253384  62.4032831
   2.4605633  86.8094063  63.5321331  68.9593315  34.2527485  13.2894027
  68.7153292  33.3272052  13.2814014  68.2425880  34.6853995  13.7534285
  68.6427450  53.3774281  14.3965495  68.6861467  52.8304005  15.1808357
  69.3887949  53.0962706  13.8668418  67.6102495   3.7141159  23.5486722
  67.4981403   2.7647635  23.5975933  68.5048580   3.8656709  23.8535357
 111.7468071  48.5503197  81.4007568 111.7413521  47.7088356  81.8569374
 112.4464130  48.4669638  80.7528019  29.5105696  24.5155668  40.1700354
  29.9856234  23.9613485  40.7892275  29.6297240  25.4046202  40.5041265
  42.7812719  33.6303568  33.8353372  43.1309366  34.3955350  34.2919207
  41.9445372  33.4559727  34.2662621  70.8695364  45.1802111  32.4547744
  70.0600386  45.4152250  32.9083252  71.0130835  45.8953524  31.8349361
  58.9395666  31.4546275  12.3747981  58.1323051  31.8691969  12.6792634
  58.7550068  31.2077856  11.4685750  45.3500795   9.4594729  37.7480984
  46.2832594   9.4241333  37.9582334  44.9825907  10.0659585  38.3910298
  44.0048504   9.7880483   0.6607216  44.9403095   9.9078804   0.8243954
  43.9660597   9.1463393  -0.0484586  52.5353670  31.5850401  31.1696434
  53.2327652  30.9842563  31.4321804  52.0594358  31.7681670  31.9796968
  45.5812120  27.2587991   3.0219233  45.2181911  27.7403021   2.2785515
  46.4436865  27.6495409   3.1622404  66.4447355  59.9148846   1.4049390
  66.9718838  59.4575310   0.7498255  66.6492224  59.4720984   2.2285630
  40.1427221  55.5139446  17.3567438  40.9735441  55.9810495  17.2685277
  40.2037144  54.7957087  16.7269421  28.8021040  13.3043623  85.0833607
  28.3259606  14.1009009  85.3179741  29.4607949  13.5959470  84.4530201
  83.2983875  54.0625095  13.4538877  82.3485470  54.0531492  13.3357918
  83.5674953  54.9334049  13.1617355  18.4737730  12.3254764  78.9138508
  18.1868970  11.6791582  79.5589924  19.3532753  12.0413339  78.6649179
  38.5117483  36.2571287  41.5071917  37.6832628  36.5943527  41.1664200
  39.0565157  36.1306477  40.7303619 109.0266037  89.5408630  91.7416000
 108.3726215  89.9647808  91.1858749 109.6999931  89.2394161  91.1317539
  25.3007197   5.4640234  82.9482841  24.6217251   5.1923084  83.5658360
  24.9307871   6.2284374  82.5066376  13.9995146 102.3058414  42.1428919
  13.1347811 102.0642662  42.4747181  14.5512795 102.3522758  42.9236794
  91.8188953  33.1765008  86.7241383  91.5876007  32.4344063  86.1655331
  91.6135883  32.8816080  87.6113319 111.1101246  83.5629940  28.0106783
 112.0491219  83.4820175  28.1779003 110.7291698  82.7743912  28.3969545
 108.1468010 101.4583397  57.0430899 107.2682476 101.7131138  57.3249769
 108.1049633 101.4721489  56.0869026  80.8535290  89.1575050  83.0199242
  80.5172348  89.1909027  83.9154816  80.1891613  89.6070671  82.4976826
  88.8558486  84.2765124  91.3401976  87.9217675  84.0849049  91.2564659
  88.9382222  84.6975239  92.1958810  77.3121548  49.0779018  14.0859377
  76.4617920  49.0867329  13.6465788  77.7425957  49.8802948  13.7907815
  57.7340746  36.7064357  36.5580559  58.6133814  36.6045690  36.9223022
  57.4278927  37.5454259  36.9024110  54.7473669  52.7542877   5.3844523
  55.0504065  52.0573664   5.9664315  54.1548586  53.2768965   5.9248656
  56.8093777  36.4867043  22.1584988  57.6349449  36.6478777  22.6153278
  56.1388397  36.8373680  22.7447104  22.9487491  64.4746113   5.3960609
  23.1140876  65.4090500   5.2706647  23.4594059  64.0466833   4.7087932
  42.9020929   8.2370931  25.3545380  42.4010658   8.0247694  26.1420202
  42.6395035   9.1316247  25.1375270  68.9924097  23.6465907  31.4394283
  69.3814230  22.8259540  31.1370063  68.0584764  23.4532595  31.5207839
  41.2934589  29.2302728   4.3010202  40.5724812  28.6665249   4.5814022
  40.8960295  29.8323011   3.6718577  91.4448833  35.0710487   6.3311470
  92.2038460  35.6253839   6.1497098  91.6547680  34.2343330   5.9163094
  32.2103643  43.1771469  25.9738374  33.0742860  42.7654600  25.9541798
  31.6834950  42.6019049  26.5285802  69.7508192  65.3710842  18.5789871
  68.9260674  65.0636196  18.2028496  70.3342819  64.6139812  18.5280371
  73.0835962  57.1416664  26.1822200  72.3740387  56.5143776  26.0434031
  72.6627922  57.8891325  26.6070127 106.3079739  90.3145599  72.6445770
 105.3530598  90.2780151  72.6996851 106.4884949  91.1058617  72.1371555
  57.8668070  35.0739264  13.6925220  57.9238844  36.0292578  13.6747849
  58.7613106  34.7838211  13.8712382  79.8159504  42.4113131   0.6740954
  79.1255713  43.0549717   0.8331926  80.6305027  42.9035997   0.7760552
  76.3920212  40.6685591  21.6103315  77.2783232  41.0071754  21.4837074
  76.0857677  41.0928345  22.4118495  60.4050732  63.3693218   3.1085441
  59.9205256  63.8121176   2.4118581  60.6317806  62.5164270   2.7378607
  45.2013922  52.5004148  17.6610589  44.9343014  53.3761072  17.9404604
  44.7743416  52.3789263  16.8130612  22.1498370  28.1457996   7.4240625
  21.9003987  28.8102007   6.7817348  21.5634298  27.4100947   7.2477198
  14.1881514  28.1670594  36.4038825  14.5715952  28.9391088  36.8199873
  14.7448671  28.0039668  35.6424999  55.9502506 105.0577927  70.1285458
  55.9750509 104.8502827  69.1944408  55.0354433 104.9279308  70.3785419
  84.8761177  33.2031894  20.8277845  84.4595242  33.7824893  21.4658213
  85.2663040  33.7957335  20.1852298  53.4449959 106.0105705  88.6783218
  52.7807808 105.8140278  88.0176926  54.2768335 105.9397602  88.2100582
  62.7111006  25.8672118  21.1976886  63.5038662  25.3464556  21.3264108
  62.9458332  26.4961338  20.5153465  63.0450964  47.1132803   8.3597445
  63.4492350  47.9680824   8.2106900  63.5463953  46.5120173   7.8089154
  81.2613583  96.2844563  47.5483847  81.2376118  96.8237209  48.3388662
  81.1660290  95.3871250  47.8676605  81.8063927  80.7704544  70.8780956
  81.0062218  81.1725712  70.5400610  81.9022369  79.9644899  70.3706884
  11.5429270  95.8232880  17.5070453  10.6044531  95.7808399  17.6906145
  11.5999734  95.8310413  16.5515780 108.1177521   5.0126213  79.5909739
 108.0041790   4.3063718  78.9549398 107.2279644   5.3117383  79.7781801
   7.8384173   8.5690016  60.8243799   8.7871462   8.4419626  60.8268785
   7.4835491   7.7184093  60.5659342  20.3147578 104.5476341  13.5070002
  19.6317756 103.8783646  13.4640443  20.5169439 104.6240139  14.4394803
   9.2737168 101.4258099  28.3750439   9.6913368 101.4243031  27.5137520
   8.6768246 102.1737003  28.3505011  55.7586336  15.7889235  27.7026033
  55.6898594  15.9806359  26.7673254  55.5984163  16.6293776  28.1317878
  42.4605076 105.6517585  91.2468529  41.9417422 104.8483157  91.2069321
  42.3797266 106.0327139  90.3724480  59.9762440  15.2437961  22.4805808
  60.2656794  16.1545980  22.4267268  59.0268230  15.3001690  22.5884986
   6.4174342  88.9627361  86.5714645   6.2114269  89.2084408  87.4733639
   6.6174650  89.7919083  86.1370754  82.1231174  27.0037079  12.7688181
  81.9927025  27.3815775  11.8990839  82.6700306  26.2332129  12.6156545
  18.3928120  13.2300508  85.7211304  18.6933208  12.3231530  85.6622887
  17.4731374  13.1614685  85.9775066  35.3305364  51.7269421   8.3958411
  36.2122107  52.0401907   8.1939584  34.8125982  52.5242519   8.5066056
  57.1411800  89.1891766  72.8770351  56.7412329  90.0514984  72.9895735
  56.9369650  88.9464569  71.9739199  13.6070657 102.2645187  85.6556416
  13.8366628 102.7557468  86.4444447  13.7070918 101.3465023  85.9075737
  73.3024597  46.6486740  11.2920940  73.1586170  46.4395094  12.2150183
  73.6167860  47.5527763  11.2975788  34.6313477  17.3400962  85.8121967
  34.1243577  16.8971372  85.1317692  33.9808393  17.8310847  86.3142014
  70.7596159  57.3797226  11.0399532  70.4778576  57.5013924  10.1332879
  69.9800539  57.5723457  11.5609217  77.0522976  63.8807964  81.7611885
  77.6806641  64.5815277  81.5869331  76.7500782  64.0466833  82.6541519
  31.8533158 104.8149204   6.8200004  30.9039903 104.7441769   6.9200379
  31.9730258 105.4471779   6.1113745  64.2961740  14.2273092  20.7817054
  63.4901285  14.7039616  20.5833864  64.9193382  14.9069762  21.0385108
  53.9142704  58.9237785   8.2568413  52.9906607  59.1737080   8.2302499
  54.3834829  59.7110653   7.9807144  48.4884930  17.7638113   0.7012084
  49.0627050  17.5590718   1.4391743  48.0331898  18.5628998   0.9665138
  87.6209641  91.2638760  78.0696535  86.9419193  91.1750317  77.4008989
  88.2925034  90.6312370  77.8146315  18.8863742  91.7514133  89.8735523
  18.1524599  91.9676399  90.4487419  19.6591532  91.8239975  90.4337025
  50.6919432  22.2290230   6.0564715  50.6922960  21.3421345   6.4165503
  51.5057278  22.6179647   6.3769573  81.1600018  64.6455002  19.1360772
  81.9386959  64.3513680  19.6086752  81.2895679  65.5871916  19.0235627
  10.1977777  85.4468155  90.8577728  10.6302047  85.9525013  91.5458870
  10.0865388  84.5744133  91.2356186  60.1381063  40.4736805   7.6202166
  59.4880438  39.9121690   8.0425340  60.8961773  40.4433155   8.2038581
  84.9125004  56.2466192  21.0763860  84.8179626  56.0750246  20.1394510
  84.8031616  55.3898764  21.4890218  84.8035717  39.4134736  16.2498903
  84.9934292  39.3627191  15.3130829  85.0366879  38.5491228  16.5886903
 101.4926910  91.1768436  73.5585070 100.7049179  91.7105865  73.4547520
 101.1842442  90.3735638  73.9778376  97.6803398 103.0826092  86.5237331
  98.5394001 102.6831532  86.6603947  97.3144531 102.6132107  85.7740498
  31.9314265   1.4318375  19.5668972  32.5880313   2.0524046  19.2506695
  31.7052889   1.7475009  20.4417968  82.6019192  80.8097267  17.9259896
  82.3019981  80.3196716  17.1604002  82.8258514  80.1365757  18.5686040
  97.6784611  89.9964046  65.3928041  96.8223476  89.7807407  65.0229597
  97.7343845  90.9497261  65.3273296 104.4682407 103.3661461  85.8055878
 104.8364925 104.0844345  85.2911282 103.5273838 103.4065437  85.6341648
  54.6959734  10.5392694  10.4129910  55.1749039   9.8338425   9.9779862
  54.6853733  10.2876103  11.3364553  37.0071554  44.5460653  17.7973640
  36.0585070  44.6515131  17.7253830  37.3241735  44.6088743  16.8963718
  34.8070598  15.4565251  50.3025866  34.6619678  14.5891285  50.6804800
  34.4824815  15.3840899  49.4050169  73.2233334  69.7422886   1.5607625
  74.1195345  69.4222546   1.4576524  72.9240799  69.3555307   2.3836228
 104.2862797  68.5590410  71.5284920 103.6598969  68.0499792  72.0430183
 104.9347878  67.9177570  71.2379360  69.8062420  94.7283268  81.2332058
  69.9399805  95.6653500  81.0906410  69.7865772  94.3525600  80.3530598
  38.3746457  29.5267010   4.6775857  38.6433125  30.3540564   4.2781720
  37.9401135  29.0494609   3.9707220  11.6728306  55.8677244  26.8224406
  11.9576585  56.0171795  27.7239752  12.4091208  55.4156351  26.4104652
  57.1532631 101.8971348  79.5625353  57.8796005 102.3860836  79.9493122
  57.5735426 101.2662315  78.9780998  31.1256552 102.0344448  74.8478699
  31.2586570 102.8904629  75.2550316  30.3373814 102.1422386  74.3156672
  59.6135855  39.4884515  17.0572650  59.5117664  40.3578138  17.4446583
  60.2151489  39.0328026  17.6461089  69.8020124  51.2623739  22.8243589
  68.8905764  51.5540648  22.8452325  70.3096724  52.0690155  22.7357697
 106.7414761  86.1256504  65.2451372 106.9490242  86.7163849  65.9691429
 107.5901794  85.7833767  64.9644518  14.8504126   2.7543056  77.8021955
  15.5323541   2.3642433  77.2553492  14.7733772   2.1604638  78.5489559
  10.7675147  31.2511301  33.4691119  11.4640558  31.8332243  33.1654191
  10.9477723  30.4161930  33.0371165 110.7718754  27.4916720  67.7992678
 111.3732338  28.1651735  67.4814510 110.6811333  26.8853998  67.0641232
  46.2055492  51.2120390   4.7130102  45.2670956  51.2502956   4.8976055
  46.6196966  51.2146187   5.5759740  65.4396105  47.9927778   7.1522152
  65.1477003  47.0825672   7.1019095  66.1858368  47.9722261   7.7513456
  68.0128050  43.5220766   8.7164146  67.7449226  43.5570097   7.7981281
  67.6358080  44.3109179   9.1060662  43.2498932   1.9365008  81.1674786
  42.6359987   2.3129931  81.7980480  44.0217638   1.7142048  81.6880798
  79.2789698  40.5475473  25.5452251  79.4892931  39.6221447  25.6702209
  78.3756304  40.6312180  25.8505225  84.7519112  32.8364086  14.7760797
  85.0846386  33.0259657  15.6533432  85.5252171  32.8743935  14.2132366
  91.5891933  90.8771896  83.9635468  90.7976151  90.3673363  83.7912464
  92.3083019  90.2765274  83.7678146  43.3500528  60.3325701   8.8370156
  43.9842033  59.8447800   8.3115226  42.5820494  59.7625542   8.8756102
 110.3148079  54.7978306  89.5317364 110.8072186  55.6175375  89.4887733
 110.4948425  54.4558954  90.4074669   6.7865902  89.1154575  75.6112242
   7.0939696  89.9255085  76.0181189   5.8324587  89.1652679  75.6693840
  52.0742512  18.7317574  34.5781636  51.1843538  18.8190985  34.9197602
  51.9872713  18.1383371  33.8321614  90.7806396  44.4036198  13.0495024
  90.6513977  43.8394117  13.8118637  89.9048138  44.7285843  12.8407931
  82.1591282  74.0413523  12.1767366  83.0043411  74.0776920  12.6245272
  81.5562248  73.6889172  12.8313565  67.0213175  14.9408853  30.2525568
  67.3112774  15.2657330  29.4001317  66.0656404  14.9713326  30.2080297
  73.9087343  28.8208437  17.4873006  74.1402292  28.2417059  16.7611861
  73.4899855  29.5733166  17.0693731  40.4703808   4.9982494  77.9265594
  39.8696542   5.7053649  78.1618261  41.0162926   4.8792249  78.7037659
   0.6976882  26.5823269  53.5251760   0.8653201  27.3454046  54.0782022
   0.2614624  26.9386196  52.7512264  58.1281614   9.4641024  29.5156693
  58.6582756   9.8679394  30.2027822  57.7142286  10.2018523  29.0677667
  91.2887478  95.3642845  75.5441761  90.4836369  95.4071045  76.0601187
  91.6361523  96.2559032  75.5679178  34.0130067  10.4609394  41.1550951
  33.1909776  10.8638895  41.4346123  34.6301126  10.6630766  41.8583393
  62.4375248  51.1439133   1.9390893  62.0703793  50.3603172   1.5299274
  62.1215487  51.1130190   2.8421047  92.8509140  87.1671009  71.0299826
  92.4976063  87.8725719  71.5719318  92.2716522  86.4236259  71.1971188
  66.7512369  16.2209022  24.9676728  66.0257387  16.7721415  24.6743727
  67.5329733  16.7507160  24.8114085  38.0686021  58.5359049   9.3958449
  37.2283626  58.6711407   9.8339570  38.4716225  57.8085899   9.8699969
  59.9692440  71.2908459  72.7270079  60.9126472  71.4450502  72.7763796
  59.8707438  70.3533983  72.8935194  43.7761211  68.6812782  13.3585536
  43.7365627  69.1529942  14.1905105  42.8620481  68.5971498  13.0872238
  37.0547771  44.9322987  27.0500612  36.9789553  45.0897598  27.9911709
  37.7276325  44.2557716  26.9738531  48.0298376  42.0702171  31.2710452
  47.5870562  42.3417521  30.4670286  47.3295116  41.7268276  31.8258977
  51.1465883  84.4378853   5.8870262  50.6109715  84.2218018   6.6503429
  50.8860159  85.3295517   5.6562507  60.8546257  27.9452944  42.9927874
  60.2923918  27.3258996  43.4580564  60.2696991  28.3804393  42.3725080
  76.2050247  74.4514608  36.0751843  75.3920841  74.5368958  35.5771327
  76.3141060  75.3006935  36.5031290  62.2279072  38.4711504  24.7300172
  62.0489931  37.5937319  24.3918467  61.6788721  39.0487599  24.1997695
  55.8351517   8.1126994   9.4397891  55.9263611   7.9100162   8.5087508
  55.1648617   7.5051844   9.7526217   8.4653389  95.9974575  54.0648746
   9.1945964  96.5550613  54.3359756   8.8829446  95.2125072  53.7103415
  47.4575710  34.0234709  23.4627867  47.3676682  33.6690903  22.5781608
  48.2868528  33.6664581  23.7806892   9.0843463   9.3456674  91.3352585
   8.9335078   9.4041240  92.2786903   9.3597418   8.4401411  91.1923885
  11.4860380  78.7355757  83.7422466  10.9397888  78.8449335  84.5206261
  12.3828006  78.8274670  84.0641212  79.5620871  50.2404690  12.2216165
  79.9972534  49.4419003  12.5201929  79.1149807  49.9825239  11.4155197
  35.4673100  30.8537674   5.3859532  35.1087046  30.0294018   5.0572395
  36.2696815  30.6007886   5.8424991  84.7064781  91.1347103  66.5955925
  84.2243958  91.7079353  67.1916008  85.6187630  91.4109230  66.6831779
   9.7316927  85.3931999  83.8458824  10.4738975  84.8634911  84.1370392
   9.1654098  85.4553604  84.6150970  74.1340542  10.4874659  23.9817929
  74.1766644  11.4430666  23.9465117  73.4240389  10.2570915  23.3825946
  64.2250729  84.0768147  66.4921236  64.3764877  83.2086945  66.1183882
  64.0902805  84.6441746  65.7330704  68.0035734  83.1733704  82.0862961
  67.9418659  82.7076054  81.2523365  67.1293545  83.5389233  82.2217274
  85.7873821  92.0766926  79.9585533  86.4522076  91.5302086  79.5395184
  86.2874889  92.7077198  80.4761600  60.2069235   8.8461202  11.0928118
  59.4949722   9.2845029  10.6267917  60.7500839   8.4693438  10.4005337
 107.7918339  89.3433857  83.7744617 108.1491661  90.0174618  84.3525314
 107.5045490  88.6480618  84.3662548  52.2943115  42.1084833  15.0812459
  51.7896461  42.9204035  15.1295376  51.7057228  41.4394712  15.4308498
  75.2856636  90.7659817  86.9313240  75.1840067  90.3927326  86.0557747
  74.4517374  91.2031460  87.1036339  98.2710075   3.2742906  83.4318638
  97.6020336   3.9520076  83.5288334  98.8416481   3.3905980  84.1915131
  61.5363264  17.9734015  20.4738498  62.4193382  18.1329441  20.8071160
  60.9920502  18.6248279  20.9161663  26.8337321   0.3411306  81.9447994
  26.4361930   1.2109045  81.9037056  26.1291265  -0.2563413  81.6942215
  74.0613127  85.3593159  82.4053955  74.6116543  85.3131866  83.1872082
  73.9610004  86.2964153  82.2380543  68.5844040  21.1415982  27.3516178
  67.9298258  20.8699441  26.7082167  69.1569376  20.3804374  27.4468398
  86.8158150  96.0053253  83.5671043  86.1649227  95.3294659  83.7562275
  86.3014984  96.7586613  83.2769394  64.9476767  18.3400154  17.3589826
  64.9945784  19.1818893  17.8120625  65.0742912  18.5576439  16.4354908
  61.5257263  43.2066488   7.7141279  60.8028793  42.6687384   7.3910546
  61.3236427  44.0898609   7.4053729  35.6804848  75.4961824  23.3592033
  35.0535846  74.7966146  23.5431385  35.1584816  76.2981415  23.3837771
  42.9610205  32.0359135  89.4494534  43.3856297  32.7804351  89.0232754
  43.6018944  31.7298198  90.0911808  48.7175703  30.5107117  42.3180962
  49.0457773  30.6089282  41.4243031  49.4850731  30.2514338  42.8279400
  10.4920185  91.5598011  84.3091011   9.8540276  91.0664177  84.8246288
   9.9617255  92.0746422  83.7008667  66.1185551  49.8105049  24.0715194
  65.9713650  50.4936123  23.4173536  65.6043720  49.0656900  23.7599111
  69.0479326  26.3857269   1.3638517  69.8134804  26.9600821   1.3468201
  68.5251617  26.6610289   0.6107596 107.6275349  77.5184059  89.9476814
 107.3440742  76.6478682  90.2270317 108.2757759  77.7804613  90.6013966
  82.3221970  89.7812271  89.9306202  83.1702900  90.2160549  89.8418045
  82.4302769  89.1963577  90.6806087  71.9038153  46.3782454   8.8474733
  72.3287344  46.5389299   9.6900022  71.7652607  47.2506857   8.4788525
  25.3495693  97.6409912  16.9993865  24.5428252  97.7040482  17.5106764
  25.0736642  97.7977562  16.0963166  55.2186060  36.1108685  15.6225061
  54.8861027  35.2619958  15.9142041  56.0767269  36.1881161  16.0395122
  96.9343281  93.0103302  70.3419256  97.0853233  92.1808529  70.7951355
  97.4803162  92.9575157  69.5574903  83.9118481  42.9485083   5.5103064
  83.0938148  43.4155178   5.3401279  83.6531925  42.0294619   5.5787301
  84.8202088  91.0215361  90.5813083  85.7192757  91.3495238  90.5995514
  84.6785977  90.6620057  91.4570472 104.9684811  41.2682915   8.1660950
 105.8920860  41.5028334   8.2565713 104.9753761  40.4636288   7.6477349
  97.8597832  95.7686806  69.1636181  98.5634041  96.4174271  69.1471577
  97.4596024  95.8712196  70.0270844  74.7710133  12.1690941  27.7202201
  74.9043179  12.5207090  26.8399763  75.4700613  11.5243220  27.8289819
  44.4645834  78.6936712  78.5915995  44.0037918  78.0665255  78.0342913
  45.3894377  78.5687923  78.3788109  51.3243914  57.6889753  27.3816037
  51.6299057  56.9419861  26.8669152  50.4272366  57.4610376  27.6253104
  47.1254683  22.4467230  42.8366661  47.5558472  23.2721448  43.0595636
  46.2738276  22.4957728  43.2708645  73.2275391  52.6163006  33.7788105
  72.9771757  53.5052299  33.5271192  74.1592979  52.5607777  33.5667467
  87.9768658  95.4003716  91.1589813  87.7760220  95.9836102  91.8909073
  88.8591766  95.0787163  91.3441658  66.2093830  50.0340033   1.5641996
  65.5520010  49.3836260   1.3170463  66.5493059  50.3596449   0.7307483
 107.2998238  81.4435101  86.2663651 106.9823456  80.7277012  85.7158566
 108.1680107  81.1590672  86.5519905  57.3137188  23.1427836  31.8969798
  56.9130468  23.9817476  31.6693163  56.5817881  22.5989795  32.1881652
 101.6179848 103.3932590  85.7794285 101.2165642 103.2716370  86.6398335
 101.4977074 104.3234539  85.5883408  42.7323151  97.1171284  72.6050425
  42.7516460  97.6156235  71.7881155  42.9377317  97.7606487  73.2832146
  21.2870145   5.0185007  65.0415421  20.9334898   4.3066469  65.5749416
  21.9845486   4.6100107  64.5288897  59.2280960  72.1945620   2.7304837
  58.9930773  72.9762220   2.2304729  58.3973122  71.7394781   2.8680608
  72.4970198  68.2779121  32.3441076  72.3438072  67.7677345  31.5488219
  71.9044781  69.0256786  32.2668409  48.1699514  37.6449537  21.3030148
  48.8121033  37.0778823  20.8760405  47.8138447  38.1800461  20.5937219
  94.4636154  36.8691993  23.1291437  94.6153069  36.9138813  22.1850967
  94.0221405  37.6919198  23.3399963   8.1443292   1.1923916  87.0530033
   8.0199325   1.8714809  86.3899803   8.9073151   0.6996167  86.7509079
  36.1679888  40.8926535  31.2732625  36.6940427  40.4505777  30.6068778
  36.0982895  40.2559996  31.9846296   7.6525325  85.4131126  79.7192383
   8.1737345  85.2743530  78.9284611   6.7686373  85.1389694  79.4746828
  52.5914621  22.7087641  60.7257652  52.3235226  23.0353856  61.5846920
  52.1558952  21.8601775  60.6456661  57.6514006  39.0540457   4.1155332
  57.9982710  39.9446893   4.0639049  56.9365263  39.1117978   4.7494507
  39.3268538   6.0195076  17.3335290  39.8013973   6.7677462  17.6957142
  38.8032293   5.6913561  18.0645311  16.4698827  86.1880684  63.9088869
  17.0302606  86.4048767  64.6540070  15.5879724  86.4255619  64.1953564
  91.5748596  48.3892727  19.7901702  91.0417461  47.6004267  19.8889005
  92.1414661  48.3935308  20.5616426  46.4848518  84.3897724  89.4514465
  46.2713051  84.6616173  90.3440475  47.4403238  84.4304657  89.4107914
  30.1311541  60.0070429   4.3143636  31.0109186  59.8695850   3.9631495
  29.9267220  60.9169960   4.0989059   2.8008735  63.2806110  81.9327736
   3.1133950  62.4310780  81.6215611   3.2063562  63.3842754  82.7936268
  64.4176292 102.5956345  81.5295887  65.2569294 102.2306919  81.2491798
  64.3426466 102.3441029  82.4501038  55.2141237  30.2142334  10.9207106
  55.4664660  29.9046493  11.7906034  54.2597628  30.2784109  10.9568417
  93.0356121  41.8150139  16.5111887  92.6284409  42.6419449  16.7693186
  93.2453442  41.3826323  17.3390102  34.0610242  44.9643135  28.3027506
  33.3592486  44.5814228  28.8291907  34.1612482  44.3638182  27.5641084
  56.8060112  48.7673330  40.2240992  57.6131916  49.0412807  39.7886229
  56.8460369  49.1822529  41.0857677  55.4616022  21.3363433  41.0989380
  54.7479916  21.4706206  41.7226028  55.3030205  21.9824839  40.4107618
  35.9081483  35.0988150  23.8144445  36.0708547  34.5636678  23.0376720
  35.7389212  35.9757185  23.4700131  72.6997757  64.5538664  37.1528912
  71.7853880  64.8339748  37.1936464  73.1656265  65.3085136  36.7927194
  10.8784771  73.3713245  87.3723221  10.0936508  72.8582954  87.5648785
  11.6016185  72.7545404  87.4857998 110.8352757  89.1249847  89.6717167
 110.9395123  88.5085678  88.9468765 110.6914139  89.9710560  89.2478085
  43.6947632  63.1187391  26.7137003  44.1444111  62.5876188  26.0564661
  44.1133738  62.8810120  27.5410342  43.1304646  35.0933671  91.6509247
  43.8090992  35.4617667  91.0852718  42.3678589  35.6534386  91.5060711
  29.2821455  99.8409271  87.7706909  29.6347618 100.2001572  88.5848522
  29.9843359  99.9620056  87.1315575  80.9496784  97.8873634   8.9874130
  80.1655579  98.4285164   8.8949871  81.0022545  97.6999664   9.9246162
  56.2286663   0.4840714  85.2988338  55.6068134  -0.2410087  85.2372932
  55.7179785   1.2073756  85.6625175  16.6424263  35.1191616  55.2543354
  17.2395670  35.8608222  55.3522873  16.7240024  34.8657990  54.3348837
  43.7821484  15.6259751  78.3733511  44.2081642  14.7808099  78.5163116
  44.4820833  16.2691116  78.4860611  24.8303914  11.7144060  77.5143909
  24.8103333  11.8229210  78.4652042  25.7297993  11.9298565  77.2676516
  35.3302169   1.8761186  80.9665298  35.6415486   1.0171684  81.2520313
  35.3517127   2.4139115  81.7580795 103.8770485   6.9599521  18.5567880
 103.5123158   7.7771181  18.8965511 104.2696285   6.5370733  19.3205214
  72.2221994  46.8842316  13.9357936  72.3903561  45.9821415  14.2081690
  71.3365412  47.0678616  14.2490375  65.5383110  48.1116819  21.9425440
  65.3358412  48.3548498  21.0391593  65.5616665  47.1548080  21.9335246
  45.0734949   5.0365210  62.2474861  44.1547537   5.0855404  62.5115919
  45.3866291   4.2129728  62.6215792  68.0361557  55.0514603   6.8233478
  67.4954844  54.7274971   6.1029649  68.7885094  54.4600153   6.8429106
  65.6579733  99.4353104  13.4859395  65.1370430  99.5258808  14.2838502
  65.8247519 100.3351498  13.2053649  41.7470646  25.5064988  85.6244850
  41.9885015  24.6064997  85.4055214  42.5792694  25.9788728  85.6475544
  55.7256746  48.7123537   3.5800380  56.3620329  48.5635424   4.2794192
  56.0775280  49.4556856   3.0902496  65.6988144  87.2068787  17.4031031
  65.5012274  86.3020515  17.1612835  64.9117708  87.6961613  17.1635151
  24.3093610  48.8977146  21.3131237  24.8532033  49.6694899  21.4707017
  24.9049711  48.1573582  21.4286804  27.9254580   7.3602456  71.7197323
  27.3452139   6.7252213  71.2998629  27.5771403   8.2125568  71.4580631
  30.7017779  23.4659624  48.3683634  30.1233983  24.0404725  48.8700104
  31.2871432  24.0630412  47.9024506  42.2295856  38.3255339  80.3804302
  41.4567518  38.8468266  80.5977249  41.8763256  37.4960232  80.0589561
  99.8091698 104.0658855  78.9103746  99.8378181 103.6050797  78.0718851
 100.3695679 103.5475063  79.4878292  33.1829731   9.3563511  91.2457812
  32.6098578   9.8485186  91.8336064  33.3539145   9.9564936  90.5199473
 109.2375374  77.1516800   4.2307836 108.4312344  76.7254543   3.9401904
 109.9116898  76.4787865   4.1361180  45.1406002   6.5307128  81.7822170
  44.2195082   6.2830603  81.8627548  45.1235962   7.4799120  81.6598892
 111.1995316  52.9904032  49.9140120 110.5503178  53.3381653  50.5254126
 111.0144901  52.0520163  49.8762894  86.1055374  52.4012136  18.7435675
  85.2033997  52.0869684  18.6832714  86.4013863  52.4558163  17.8348732
  77.0660448  68.1236839  23.5354924  77.4969959  68.1407261  24.3900228
  77.6918602  67.6834249  22.9603767  52.2603703  61.4055586   8.6535245
  52.6020384  62.2988176   8.6137676  51.6536522  61.4139223   9.3938321
  38.3206010  36.8806696  17.1194720  38.2077456  35.9314704  17.1696472
  38.7122416  37.0301461  16.2589455   1.8362862  78.0129814  86.4823818
   1.2843497  78.7948036  86.5011120   1.7841852  77.7046347  85.5777073
  58.8997030  36.8780422   5.8670628  58.9920473  37.6457834   5.3028995
  58.1801748  37.1001840   6.4579636  23.1085658   0.9429028  88.2994556
  23.7717891   0.5190138  88.8441467  23.4082556   1.8483472  88.2182789
  86.0368919  49.7900248  35.0194168  85.5410004  49.2430258  34.4102192
  86.6466427  49.1853809  35.4423118  97.5521374  59.6524858  33.4906006
  98.3866310  60.0851965  33.6711669  96.9313908  60.3707981  33.3683610
  31.5502286  11.0805988  62.6604366  31.5963721  10.1687539  62.9479074
  32.3510599  11.4797354  63.0004168  79.2024660  77.2424459   1.7003104
  79.1183567  78.1821489   1.8619013  79.1741419  76.8461847   2.5711769
  82.7688408  54.6453238   2.6379338  82.3314381  54.3640995   1.8343006
  83.3295250  53.9070845   2.8763929  30.3399420  14.9459338  -0.0752826
  30.8447814  15.7581151  -0.1168806  30.8191895  14.3975782   0.5458933
 107.8890610  57.2602606  31.6844392 108.0571556  58.0220604  31.1297894
 107.0080853  57.4050379  32.0296335  40.0762415  52.5839424   2.3318823
  39.6875596  51.9349003   2.9183120  39.8993444  52.2488880   1.4528617
 112.2565515   6.6512805  83.6804771 113.1561019   6.7683250  83.9859962
 111.9896282   5.8053094  84.0400791  79.6999931  85.5036926  82.6730633
  80.4588127  86.0870838  82.6820087  79.5380688  85.3355598  81.7447567
  96.0712910  57.3065805  39.1405129  96.8551064  57.8558254  39.1265392
  96.2203598  56.6947746  39.8614192  56.6748714  24.3221092  15.8430624
  57.1295738  23.6538029  15.3303814  57.3114491  25.0316596  15.9298944
  98.2357311  90.5940628  36.6678834  98.7589931  89.8865604  37.0445371
  97.7501774  90.9541130  37.4100661  42.0862770   6.2590814  89.9391651
  42.7795410   6.7942381  89.5528603  41.8033886   5.6839615  89.2282200
  41.1684513  13.9034808  75.7971239  40.8291864  13.2959712  75.1398087
  40.4303885  14.0539730  76.3877583   1.5202145   3.5367197  84.4927883
   0.6076402   3.7207061  84.7154808   1.8321830   4.3407112  84.0774536
  85.5323219  28.5739779  11.4566565  85.4475975  29.5273185  11.4706707
  84.9114990  28.2881737  10.7864928  95.1391506 100.4690456  79.1135645
  95.0015163 100.2534103  80.0359440  95.0315571 101.4192390  79.0710974
  11.1357579  90.3042157  90.5790808  10.1889310  90.4335458  90.6340724
  11.5066514  91.1657531  90.7699216  55.2834463  73.2211876  11.8724155
  55.8237314  73.9706326  12.1227169  54.6336746  73.1501627  12.5716901
  32.8036499  23.8545060  41.1408043  32.5702357  22.9291606  41.2148619
  32.9469490  24.1383743  42.0436430  95.8533764  52.8323793  26.5020680
  94.9692154  52.8073168  26.8679237  95.8317566  52.2042179  25.7801414
   7.4921834  90.6087494  64.2524099   7.3220414  90.5149937  63.3151293
   7.2968698  91.5267181  64.4406414  44.8611257  44.6289174   0.7289395
  44.7124288  44.3232076   1.6237339  44.5487687  43.9126508   0.1760945
  29.9375200  82.7327251  78.3999491  29.1210008  83.1417084  78.1131458
  30.5418706  82.8667355  77.6698589  91.3891792  61.5708923  75.1933956
  91.4147758  60.6157255  75.2502394  91.8205547  61.7730665  74.3631697
  97.4721241 105.6674099  85.8527660  97.8040409 106.0028553  86.6855526
  97.7753925 104.7600365  85.8220959   9.7826105   7.4663681  29.0574002
  10.2443194   8.1661153  29.5193648  10.4580140   6.8127596  28.8761306
  98.9556980   6.2566787  15.9398592  99.8152924   6.5403235  16.2510991
  99.0268898   6.2797540  14.9855900  86.1198330  62.6167011  20.5866933
  86.5353489  61.7641258  20.4574800  86.6341019  63.2179070  20.0478935
  34.4401836  37.0703554  62.7163506  34.6221995  37.1810675  61.7831564
  35.1565504  37.5282788  63.1560755  98.1262398  93.6907005  63.2702208
  97.6995564  94.3385220  62.7094126  99.0114498  93.6120033  62.9146242
   8.2759684  13.3247054  67.7696848   8.5224503  13.6190796  66.8928623
   7.9694670  14.1168988  68.2109547  17.3067796  80.6319809  52.7816534
  16.5893877  80.3569889  53.3525848  17.0902848  80.2575779  51.9277287
  68.3756685  95.9447956   8.8561249  67.6520252  96.5709972   8.8349241
  68.6778927  95.9586811   9.7642541   9.8413980 102.6209831  84.8605442
   9.9312276 102.9973793  83.9850616  10.5051351 101.9321156  84.8943520
  37.1840048  62.8075314   8.4777761  37.8679895  62.1385241   8.4490079
  36.3972068  62.3591375   8.1677365  64.9702501  67.0925665  20.0318956
  64.1005278  67.1181345  20.4308534  64.9968672  67.8639936  19.4658351
  54.2381239  16.7352617  63.4594107  54.6655464  16.9156730  62.6221609
  54.9514341  16.7367196  64.0977001  88.4894180  93.6711121  63.6508083
  88.6351109  94.3657780  63.0085897  87.7045631  93.9446259  64.1255951
  41.8675937  94.5028971   1.2165436  42.1778275  95.3596685   1.5096840
  41.1001630  94.3269442   1.7609009  57.7648067  66.8014097   0.4196002
  57.3776007  67.2423649   1.1758152  58.6250257  67.2090483   0.3191936
   3.5807773  13.9440584  82.0232773   3.6152166  12.9902065  81.9510841
   3.1638902  14.2308509  81.2107563   1.6390529  98.7853432  83.3186626
   2.4477772  98.6998177  82.8138065   1.6383481  98.0252075  83.9004135
  97.2681427 100.8631229  51.2015581  96.6098595 101.5483856  51.3169289
  97.0378590 100.4472160  50.3707647  35.2349353  24.5087433  36.5172672
  34.4291186  24.6130133  36.0112810  35.5600381  23.6419344  36.2739897
  35.6909752  16.0468161  80.1854897  36.6395545  16.1408722  80.2725887
  35.4352045  15.5005717  80.9287453  69.3373203  43.4149599  12.3594451
  68.5177946  43.2055902  11.9113684  69.5636988  44.2911768  12.0476341
  51.4053679  17.4648881   8.5430390  52.1509504  17.3715866   7.9500550
  51.4185381  16.6670668   9.0717542   1.4344499  75.1703787  19.3945372
   0.8169284  75.1676035  18.6631739   2.2970200  75.1578903  18.9797497
  73.2201672  60.5522394  16.2774885  72.5692987  61.2006187  16.0087907
  73.6587238  60.9504700  17.0293617 104.1008091  96.5469360   8.9184523
 104.7056866  95.8602905   9.1992736 103.3067989  96.3904190   9.4296008
  98.5911369  22.0940471  83.6331654  99.1455364  21.5912676  83.0364323
  98.6866283  23.0008817  83.3420181  45.8723879  92.3978519   3.4127823
  46.6092157  92.9489136   3.1488696  45.8447933  91.7034626   2.7545369
  51.4742804  40.2907848  21.3544822  51.8969059  39.4730186  21.0920334
  51.0839748  40.0959778  22.2065067  51.8984079  53.5558176  12.5714290
  51.5501308  54.1508675  13.2353902  52.5158262  53.0005836  13.0476093
  51.6178751  49.9469042   1.1772003  50.8204842  49.5553875   0.8206739
  52.2195959  49.2101192   1.2835479 102.9779243  34.1271186  33.5466909
 102.5005341  33.9002919  34.3447375 103.7354851  33.5420322  33.5462928
  26.3914895  41.3843203  84.8879337  26.0470557  42.1308470  85.3781319
  26.0133028  40.6187248  85.3204536  32.8314686  33.4763741  91.2518311
  33.3778071  33.9803696  90.6487274  32.2454214  32.9766345  90.6834602
  74.1865492  59.0741348   6.6346514  74.0563202  59.9392605   7.0230192
  74.5611525  59.2527342   5.7720929 106.8609619  76.2979507  26.3564181
 106.9561577  76.0921383  25.4264665 106.6885948  77.2392797  26.3769722
  25.1907706  20.6819725  77.6329422  24.3382263  21.1088252  77.5481129
  25.3304219  20.6114602  78.5772705  93.4757519  40.1593161  26.7149186
  93.2396984  39.5653391  26.0023880  93.2912159  41.0328007  26.3696623
  37.6858258  15.3312278  88.4133244  38.5829973  15.3945887  88.7408924
  37.2078657  14.8807609  89.1096497  23.5205269  36.8348789  66.3148069
  22.8858018  36.2188649  65.9489059  23.0102134  37.6234937  66.4989328
  73.3178186  41.5877342  10.1916313  72.6582575  41.2618732   9.5792383
  72.9726887  42.4292374  10.4899430   0.3705252  80.1991367   8.0611444
   0.3786154  80.9658241   7.4881142   1.1610705  80.2894497   8.5932279
  21.3562346  15.9037209  89.4029713  21.6634202  16.0772383  88.5131550
  21.1419034  14.9708271  89.4047070  16.3321555 105.5213642  61.0046482
  16.6920626 104.8954201  60.3762484  16.3556957 106.3613415  60.5462646
  32.0767975  17.4429798  60.1723528  32.9964375  17.6733470  60.3043652
  31.6287136  17.7961326  60.9409475  59.1710949  65.3184271   7.6379526
  59.0083313  64.8913240   6.7969275  58.3749771  65.1598167   8.1451702
  40.1184368  16.1220896  88.7857819  40.4478168  16.1419165  89.6843052
  40.8966923  15.9737790  88.2486057  94.9764442  33.6967349   3.1193364
  95.1042175  34.2690825   2.3628157  94.3471622  34.1634846   3.6692208
  75.0742626  63.4824944   7.1752214  75.6098270  64.1130447   6.6937506
  74.6801138  63.9934826   7.8821629  76.7506075  67.2459459   3.7053317
  77.1223974  67.6768923   4.4749340  77.5062180  66.8730021   3.2512408
  49.7874975  73.1596184  23.1876373  50.0937414  72.3088360  23.5016608
  50.5751610  73.7028790  23.1612635  75.5158377  93.3732224  20.3036761
  75.3949070  92.6148224  20.8750176  74.6961117  93.8619137  20.3775907
  81.3535881  82.0825100   6.5414727  82.1079636  81.7389297   6.0628361
  81.6599941  82.9119873   6.9079554  97.4464417  56.5345240   2.0369668
  97.2443962  56.8122292   2.9304349  98.2934475  56.0944319   2.1087041
  25.4727221  33.0126977  82.8813267  24.7909379  32.4432921  83.2379436
  25.5620289  32.7370262  81.9690418  91.4825726  57.0789099  25.6758881
  91.6471004  57.9610300  26.0090899  90.6135559  57.1313715  25.2780294
  77.5570536  23.8154459  32.0428634  77.7616644  23.6842871  32.9686952
  77.9819584  23.0824184  31.5974855  58.8582802  69.8338699   5.3442895
  59.5478106  69.6300030   4.7124553  59.3100643  69.8740816   6.1872047
  19.2154753  26.3606787  75.7632923  19.9410987  26.1626267  75.1712799
  18.6865580  25.5629039  75.7691526  27.5802970  22.5678134  37.5930023
  28.1406736  21.8913054  37.9731917  27.6043630  23.2835627  38.2281065
  51.1031675  40.8257627   5.0062746  51.1603880  41.6358662   5.5129224
  51.2019014  41.1050415   4.0960628  95.5208206 105.9286404  83.9725876
  96.0457802 105.7526302  84.7533989  95.6646442 105.1672268  83.4106350
  66.8656778  69.2085791  27.6728916  67.1621847  69.2622566  26.7643595
  66.4193964  70.0409079  27.8287625  89.7301674  49.2382050  27.7539301
  88.8389206  49.2541409  28.1027222  89.7764015  50.0027466  27.1798468
  28.7480211 101.3813210  69.1293716  29.3460107 102.1199512  69.0150595
  28.6688328 100.9997368  68.2550955  57.2966576  15.5640447  79.0462303
  57.3092747  16.3886702  79.5320988  56.3679504  15.3913164  78.8916445
  58.5498667  24.2269063  24.9588537  59.4748497  24.0120363  24.8385954
  58.0812883  23.4565973  24.6374583  66.0068750  92.1210861   3.8356128
  66.5615845  91.6007614   3.2544166  66.2420321  93.0285454   3.6420998
  73.1278276  34.4564605   3.0869791  74.0015602  34.8362541   2.9943651
  72.9193449  34.1199207   2.2154817  58.8414907  10.4540646  89.9313927
  59.7319841  10.6793261  90.2006721  58.5269213   9.8625815  90.6150818
   5.3366989  94.9086666  60.2870417   5.8796996  95.2807236  60.9819937
   5.9213537  94.8507023  59.5313644  56.2611532  45.9528494  17.9846251
  56.7691994  45.9395313  18.7957609  56.4572668  45.1149845  17.5653911
  69.5776939  41.1625814   6.4872223  69.2220163  42.0100737   6.2198496
  70.2995300  41.0031605   5.8791369 104.8658085 100.5502510  63.6205959
 104.3377972 101.1908913  64.0970516 105.7163143 100.9753609  63.5103512
  24.7856379  92.9534912  83.9764309  24.8466921  93.0060005  83.0226231
  24.5443749  93.8384438  84.2500687  66.5911674  67.0229864   3.3669865
  66.9211626  66.1285448   3.4525079  65.6636047  66.9588423   3.5944751
  31.6842031  85.3801918  80.6925392  32.4299312  84.7806549  80.6665611
  32.0423794  86.1926079  81.0502052   1.8034948  53.9831305  81.8321514
   1.1346827  53.2985687  81.8494701   1.3205612  54.7847748  81.6312122
  85.6126881  34.5390677  32.0042682  84.7818470  34.2591786  32.3884439
  86.2785053  34.2122102  32.6093173  98.2589912  89.2604828  17.7160597
  97.4689579  88.7217712  17.6727700  98.2858086  89.5740891  18.6200297
  30.7012558  27.2234297  84.6635342  30.8640623  27.6414013  85.5091286
  29.7513700  27.1097732  84.6314716  27.4755311  11.0589111  85.7136726
  27.9504323  11.8415391  85.4340458  27.6053023  11.0258734  86.6614628
  66.8548489  58.5437059  21.7955875  66.4709044  59.1703558  21.1822963
  66.5791035  58.8532782  22.6583505  38.7049079  23.4912896  86.0868073
  38.6130834  23.7608194  87.0006752  38.7646890  22.5366616  86.1234951
  42.3925400  47.7924967   2.0299254  41.5334415  48.2050705   1.9406858
  42.6144695  47.5072145   1.1435880  88.1795883  82.8969479  16.9809604
  88.8874531  83.5296440  17.1028471  87.5535011  83.1012535  17.6755798
  81.1414623  61.6642952  44.1839647  81.5854359  60.8534050  44.4321060
  80.2281284  61.4078808  44.0562630  61.6350508  93.4803200  28.2961249
  62.0859671  93.4170628  27.4541569  61.0635090  94.2427349  28.2050467
  69.7441053  74.1315460  17.8388989  68.9705038  74.5297194  17.4398601
  70.4699945  74.6927214  17.5661397  71.0535288  67.3668003   6.1557460
  70.8289576  68.1700754   6.6253686  70.8849001  66.6660213   6.7855889
 103.8789558  58.0702829   7.0835662 103.8225079  58.8216782   6.4932650
 104.7500038  58.1378317   7.4746412  46.4277840  22.7541685  91.3577175
  46.5770292  21.9219422  91.8064404  46.6227579  23.4201217  92.0170498
 111.7949494  63.0490017  16.1842501 111.4691013  62.9900408  15.2861536
 112.7107985  62.7770615  16.1250889  93.4756660  43.8325787  31.6937637
  92.5511456  43.9024401  31.4558244  93.7041283  42.9229307  31.5025234
   1.3117653  16.1923838  68.5922956   1.7307596  16.0552680  69.4419289
   0.5065341  15.6767333  68.6363411  46.6437817  11.4807284  89.1382790
  46.8610907  11.1599386  90.0135517  47.4466467  11.9019985  88.8314152
  55.5881977  63.5873127   4.8052591  55.1870203  64.1184092   4.1173449
  54.9321651  62.9197264   5.0057107  59.7548056  48.4989309  10.8150828
  59.3043375  49.3375826  10.9149325  59.0633440  47.8830147  10.5726826
  88.3985519  76.7608452  22.9234529  88.9113712  76.4386177  23.6646771
  87.7211475  77.3081255  23.3207369  98.2031345  93.3720684  81.3926697
  97.3546696  92.9819775  81.1825180  98.8051224  92.9965591  80.7501507
  99.4923401  29.7054482  19.0783298  98.6995602  29.7179461  19.6145821
 100.1691914  29.3585801  19.6595275   2.2932330  41.5671301   4.1832021
   2.0750503  41.9485950   3.3328408   3.2501301  41.5671158   4.2072827
  55.6061649  68.4916830   7.4384362  55.4702759  67.6695108   6.9674820
  56.5303373  68.4753036   7.6871663  43.1746387  38.1036949  72.4079800
  43.0766916  37.1553135  72.3230791  43.3231783  38.4101748  71.5134192
  74.0129614  17.2176719  90.9323883  73.9069700  17.5870001  90.0556850
  74.4792461  17.8946996  91.4227295  75.0348139  11.0478938  10.1361513
  74.8987007  10.6793237  11.0089970  74.7937250  11.9699395  10.2252400
  77.5480461  71.2330675  28.0650210  77.5714588  70.2830839  27.9500365
  76.9880438  71.3680649  28.8294840  88.5667229  98.6498165  44.0119839
  89.4935894  98.5233021  44.2148209  88.5005569  98.4727478  43.0736303
 111.1540508 102.7048588  85.7507801 111.3167572 102.2083282  86.5527916
 110.5156517 102.1790504  85.2689075  23.9540577   5.8637273  74.1182280
  23.8661361   6.7431128  73.7505579  24.8708129   5.8073449  74.3876982
  79.6578312  87.0462608  67.6850653  79.6687603  86.0892868  67.6670694
  80.4954052  87.2879601  68.0803823  98.1162548  38.3830571  23.8504076
  98.9297867  37.9923773  23.5313964  98.0282784  39.1947150  23.3507037
  78.9361382  68.3949947  28.2690072  79.0832806  68.9083719  29.0633750
  78.5370970  67.5822496  28.5795665  69.4179583  47.3808002  17.2825205
  69.8165751  46.5291071  17.4612713  69.6547937  47.5702858  16.3746476
  23.1949019  12.8914475  74.4367886  22.3587060  13.3457196  74.3336153
  23.1154275  12.1147180  73.8830662  64.5840502  34.3479514  24.0652370
  64.2350531  33.8995624  24.8355484  64.1873646  33.8923883  23.3227181
 107.8370476  22.0883322  19.0110946 107.7865982  21.7949247  19.9208188
 108.4235764  21.4605188  18.5891247  83.7910366  69.7487688   3.6545482
  84.3845749  69.0189695   3.4775195  83.8187599  70.2787018   2.8579068
  58.8753271  44.0729141   8.8968015  58.2549429  44.5415974   8.3385098
  59.5941401  44.6912813   9.0278059  68.2813263  49.2845678   3.4411889
  68.8665867  49.9782991   3.1371450  67.4085140  49.5738792   3.1752467
  65.8179283  57.8440475  18.5837328  65.3823185  58.5812044  19.0116155
  66.7520142  58.0326366  18.6739779  48.1808281  11.7161989  63.7653828
  47.2600651  11.4628959  63.8306952  48.6000299  10.9818161  63.3168507
  16.5719056  97.1453667  90.4903889  16.4656711  96.9269657  89.5645142
  15.6777155  97.2447109  90.8171654  91.3633823  60.6996536  16.5275455
  91.5268040  59.9830055  17.1406829  91.5846920  60.3363895  15.6700540
  88.8808349  74.7812827  90.7653675  89.1530755  75.5400045  91.2815633
  88.2148316  74.3524726  91.3027610   7.7431881 102.1415806  73.8368368
   7.8954673 103.0855370  73.8813543   7.7756232 101.8505001  74.7481251
  63.0674076  86.9164944   5.3657305  63.9145041  86.6858196   5.7470983
  62.9246426  87.8249931   5.6312114  64.9964046   6.0777301  69.4477892
  65.1505566   5.7695287  70.3408051  65.8312511   5.9412688  68.9998579
  75.8725548  76.9817543   3.2035527  75.9690952  76.2652874   3.8309184
  76.0593462  76.5827894   2.3537478  78.7678289  91.8279171  58.9216137
  79.6451664  91.5261459  59.1570902  78.5530949  91.3420200  58.1253576
   3.2904568  22.8788948  33.6041284   3.2138187  23.7354922  33.1838918
   3.7887540  22.3501205  32.9809690  88.0769062  34.5433760  20.0888181
  88.4013081  33.6438847  20.1325440  88.8207150  35.0507164  19.7638822
  24.9007893  22.3962736  73.8556099  24.1076422  22.6799273  74.3102407
  25.4558039  22.0334864  74.5459557  85.2401638  62.3250961  10.3197026
  84.9299145  61.4201689  10.3525364  85.4694748  62.4664974   9.4011968
  50.5089760  17.8279591  67.7549648  50.1414108  18.0040050  66.8888617
  49.8930597  17.2150409  68.1564760  63.6779547  42.1221304  30.6353831
  63.7876749  42.2520399  31.5773559  63.9583826  41.2195683  30.4838109
   4.0676361  84.8899937   5.6674212   4.2728245  83.9673424   5.5163074
   4.7779506  85.3667641   5.2380323   2.3670045  28.7479162  78.1164026
   2.8743660  28.0012679  77.7980757   1.7122930  28.3619833  78.6983299
  90.0308990  15.5791330  90.2517986  90.3927135  16.4346957  90.0208664
  89.6673298  15.2437294  89.4323158  62.9053831  76.8703794  30.3268623
  63.6042738  77.5067616  30.1758695  62.3111963  76.9867706  29.5854950
  60.7790470  22.2218823   6.6498989  60.8852148  22.9421592   6.0284793
  60.8388662  22.6370716   7.5102890 102.6781178  82.9200459  18.0721366
 102.8449821  82.1612072  18.6312008 102.6360798  83.6595726  18.6783981
  65.7011461  37.0489383  79.2640877  65.0114584  37.4375200  78.7259769
  66.4509010  36.9724631  78.6739635  14.6810937  51.6118765  57.1097231
  14.1449034  50.8878374  57.4329853  14.7488284  51.4576626  56.1674595
  66.2162495  71.9881821  20.8419394  65.8250046  71.1360931  21.0345483
  66.6507339  71.8669081  19.9976945  89.8733425  54.9395943  27.5140381
  90.3708363  54.6958637  26.7334437  90.4316807  55.5721855  27.9660630
  97.3192310  34.8245955  74.8890352  97.1162987  33.9500928  75.2211523
  96.7997932  34.9034238  74.0889120  86.3027954  46.7423344   1.2142645
  85.4482079  46.3544607   1.0259586  86.1155796  47.4421358   1.8399295
  84.4660664  71.2406063  20.5351973  85.2436638  70.9236383  20.9946465
  83.8304996  71.4120007  21.2301183 100.4516029  86.3888168   8.8228548
  99.5533371  86.0886383   8.6841136 100.9436226  85.5908585   9.0162575
  38.9443722  96.2934382  90.4819258  39.7163933  95.7517274  90.3183329
  39.2834274  97.0605357  90.9432669  95.8752918  63.6465120   5.4030466
  95.0334549  64.0615749   5.5908418  96.3294792  64.2711878   4.8375979
  57.8212070  85.6449032  34.7331524  57.5451565  85.1327038  35.4932046
  57.0162249  86.0528469  34.4140553  40.2299404  56.5697861  84.4741058
  39.7075486  57.2246408  84.9372578  39.9639440  56.6550255  83.5585594
  56.3643980  81.8497753  45.0707722  56.1735249  81.2286377  44.3679285
  56.2903833  81.3334370  45.8733654  86.8044472  80.7057476  32.0045018
  87.0046997  81.0056400  31.1178255  86.4208508  79.8372746  31.8826938
  48.9668703  46.6554928  15.1372373  49.1238213  46.4564133  16.0602570
  48.5421991  47.5132895  15.1460814  13.7889898  58.6123419  14.3272364
  12.8739238  58.3354378  14.3742299  14.0866375  58.6110640  15.2369809
  96.8636322  75.4667854  25.3485727  97.0768929  74.7820234  25.9824896
  97.4359989  75.2889395  24.6022463  63.8606501  66.9094753   3.5219041
  63.5727024  66.1711264   2.9851022  63.2042885  66.9714260   4.2158663
  63.0872345  91.0463524  17.3399687  63.7364483  91.7400551  17.2236705
  63.5682631  90.2368546  17.1680295  60.6318617  46.2384796   9.3373668
  60.5623960  46.9933891   9.9217618  61.5219831  46.2866306   8.9886618
  28.0903268  27.3357320  62.8551722  28.9769626  27.2254443  62.5117445
  27.6624489  26.4960194  62.6877451  89.6539974  65.0863934  11.5896130
  89.2857742  65.4407692  10.7802534  89.5783520  64.1372252  11.4916968
  47.3605013  14.3859041  82.2394753  46.4681911  14.3449771  82.5834942
  47.2657204  14.2006707  81.3051701  91.8537235  83.6942005  26.4066172
  92.6618862  84.0357876  26.0239673  92.1478176  83.1124020  27.1075130
  79.4281244  25.8844256  11.4176333  79.9982691  26.5186405  10.9829640
  80.0107098  25.1639962  11.6580701   9.6769840  26.5270948  49.6969700
   9.4238317  27.4105358  49.4292450   8.9218098  26.1991572  50.1852322
 108.4742260  68.3194065   1.0392644 108.6537552  68.2989979   0.0992723
 108.2004833  67.4267817   1.2502567  69.4434738  66.2016678  21.4730811
  70.0459146  66.9128942  21.2552547  69.6876955  65.4908991  20.8802938
  41.7383385  46.0390615  13.4802341  41.7159462  45.3180885  12.8510094
  42.3029995  45.7236719  14.1858709  15.9329915  96.7947102  81.5258694
  16.2922633  95.9075642  81.5149689  16.4806485  97.2824764  80.9107399
 101.2609386  75.9445620  19.5998573 101.1798286  75.1623106  20.1455069
 101.6046047  75.6211185  18.7670851  31.6995668 100.4134369  71.5662146
  30.9118414 100.3396893  71.0274363  31.4655113  99.9896336  72.3919487
  87.0743465  71.5676594   8.2802629  87.3083115  72.4374533   8.6042196
  86.8627167  71.7049122   7.3568976  24.7344923   6.7916971  32.2914457
  24.0952611   6.1909628  31.9083881  25.2733850   6.2389988  32.8574395
  77.7616644  80.8539200  75.7591200  78.0901623  79.9558258  75.8009243
  77.6603460  81.0285854  74.8234606 105.2484512 100.7519913  68.8999462
 105.0182152 100.2723312  69.6956539 104.4697094 100.6867695  68.3471823
  15.9344542   4.4342312  23.1483889  16.6618478   4.1798294  22.5805759
  16.2056422   5.2716994  23.5243344  22.3312354  16.3533783  86.9617367
  21.5576553  16.0113299  86.5136242  22.9700184  16.4944208  86.2629604
  73.2845736  59.2674351  23.9424038  72.9769182  60.1611805  24.0933919
  72.4841785  58.7468719  23.8744807  52.8912926  40.3959608  70.7715940
  52.0555067  40.8466482  70.6508589  52.6566410  39.4705105  70.8402348
  28.6771727  85.7492352  13.3980584  29.4769430  85.6721497  12.8778136
  27.9775977  85.4787445  12.8033626  76.4447260  46.7445755   5.7957685
  75.8010817  46.4990330   6.4603466  77.1142244  47.2294617   6.2783569
  90.4036713  44.1525173   6.9324809  90.8668041  43.4148264   6.5355611
  89.5074654  43.8374519   7.0499355  33.4780312   0.6065156  25.2108860
  32.5430560   0.8110473  25.1959586  33.5580468  -0.1020027  25.8495021
  87.5895405  97.5190544  22.2296596  87.9245472  96.6233063  22.1890974
  86.9953823  97.5188065  22.9801321  10.2318609   0.8731476  68.4064579
  10.5358851   0.8683246  67.4988317  10.9028184   1.3637322  68.8811922
  37.0571280   8.7054652  86.7753315  37.9131198   8.8554966  86.3740921
  36.5824437   9.5257056  86.6407490  88.7469006  76.8708944  19.0495944
  89.4268322  77.2161484  19.6281540  88.0959988  76.4952564  19.6424329
  10.7375717  81.9707680  33.9406085  10.8501410  82.2986984  33.0484080
  11.4307797  82.3993874  34.4425774  90.6396770  74.7209072  16.4290190
  89.9887562  74.5526457  17.1103609  91.2811375  75.2952623  16.8471944
  31.0775733  39.8361516  85.4648495  31.8440604  40.2348995  85.0528717
  31.3262844  38.9215946  85.5988789  86.3985538  83.2256699  19.1178977
  85.8992767  82.5170708  19.5238876  86.6854000  83.7680435  19.8526001
  93.0997753  98.7109470  27.5499129  93.0755711  98.5320568  26.6098905
  93.1783009  97.8477383  27.9560494 105.2763844  70.6497478  19.4173825
 105.2166557  69.7995663  18.9816511 104.4726658  70.7113028  19.9335980
  94.8953247  72.5602245  33.0352569  94.4437599  72.7149820  33.8649392
  94.7742844  73.3714151  32.5417471  91.6907406  62.5658989   0.8969834
  91.6109085  62.3749161   1.8315342  91.0967541  61.9456959   0.4741831
  38.9537144  33.4534359  75.6942701  38.0522251  33.7484789  75.5658293
  39.0821648  33.4816194  76.6423941  38.8474393  74.3687963  24.3860817
  37.9892468  74.6092606  24.7352481  39.4687223  74.8806763  24.9039817
 101.4965343  74.5996475  17.1454537 100.7549953  74.0682364  16.8557096
 102.2460842  74.0054941  17.1081209  91.9314861 101.8908787  85.5778885
  91.9597054 101.9214153  84.6215916  92.6404572 101.2948990  85.8195114
  80.0042248  81.9339752  33.1468081  79.3526506  82.6314259  33.0743170
  80.1659107  81.8540287  34.0868592  31.7876720  29.2803907  80.3565884
  31.1121154  28.7269521  80.7484627  31.5367222  30.1719761  80.5981159
  86.8545341  90.2182674  11.1923814  87.1153355  89.3230152  10.9762001
  87.4720478  90.7701492  10.7124388  79.8119783 103.5172272  14.5239985
  79.1019869 103.0419254  14.0924609  79.4424343 104.3796825  14.7133470
  89.9211311  54.0121365  10.2465391  88.9686012  54.1055679  10.2328813
  90.0686169  53.0966425  10.4839277 106.2831497  36.7850232  23.9467001
 106.6395473  36.8470240  23.0604911 107.0474434  36.8602538  24.5180345
  18.2204247  36.3713264  91.4599419  18.3897555  36.8019199  90.6219959
  17.2825599  36.1804223  91.4459133  57.8745413  15.8947134  91.6328907
  58.7500811  16.0262179  91.2690639  57.9628754  16.1232233  92.5582027
   3.7858641  92.6466560  19.9328136   3.3709666  92.0731926  20.5771971
   3.3102828  92.4768066  19.1196680  38.7946749   4.8433977  91.4315033
  37.8847289   4.9313754  91.1477947  39.1078663   5.7441044  91.5143871
  82.0633602   9.3081832  11.0201478  81.8407249   8.4667987  11.4185643
  83.0185986   9.2991930  10.9595287  67.8442383  36.7930937   0.9539977
  67.2323132  36.6705418   1.6797799  68.1084871  37.7110100   1.0159049
  77.4448109   4.9976686  17.0000517  77.7850819   5.1810759  17.8757286
  77.1887732   5.8543408  16.6583049  32.9420257  90.1838779  54.9196434
  32.6859307  89.2917728  55.1537466  33.7151814  90.3596401  55.4558992
  10.0509548 101.2934589  71.6653442   9.1491205 101.0178471  71.5011311
  10.0867116 101.4456177  72.6096964  25.6690168  11.6165638  80.3128529
  24.9307251  11.8303823  80.8833218  25.6755805  10.6600213  80.2779865
  60.9032536  59.4154787  14.7248602  61.8308926  59.6507454  14.7439194
  60.5287647  59.8557711  15.4878390  80.1716709   8.4312117   5.5272126
  80.6814766   7.7480072   5.9626037  80.7767963   9.1687930   5.4495072
  81.0000420  18.5378385  15.3009057  81.6697216  17.9151189  15.0180757
  80.1714516  18.0817425  15.1538002  76.4553881   2.4493907  23.2808685
  76.4782095   2.9467094  22.4633193  75.5378056   2.1961617  23.3816409
  51.7861366  15.8848941  50.0166464  51.9265413  14.9778390  50.2882528
  50.9264708  15.8785391  49.5957375  88.6833763  42.2390795  11.4532089
  89.2062759  42.9917383  11.1769593  89.2093468  41.4784241  11.2062466
  39.6685529  45.3800726   7.6122189  39.2256546  46.0760975   7.1268106
  40.3441620  45.8327007   8.1171024  65.8562469  34.6294856  15.2199900
  65.4808569  33.7489939  15.2268338  65.6980371  34.9641776  16.1027038
  12.4506807  91.2894821  87.9833317  12.5814462  90.6106186  88.6453533
  12.4387944  90.8145523  87.1523571 106.9772816  26.7231560   0.6317088
 107.1330166  27.0868754  -0.2398911 106.6158390  25.8523035   0.4667544
  27.0816088  58.7257671  87.2902012  26.6030598  58.1843519  87.9179668
  27.9435730  58.3143234  87.2272301  35.1132774   7.3357952  64.4191313
  35.8204246   6.7275232  64.2042398  34.3593597   6.7734367  64.5968819
  11.0500908  79.6247578  66.3692951  11.0651422  78.7766838  66.8128872
  11.6606903  80.1670837  66.8685818   4.1513276  91.0249710  56.7154121
   4.6766430  90.2292633  56.7998266   3.8466394  91.0156822  55.8080482
  61.5332127  48.9061689  18.4984994  61.0739040  49.1407347  17.6921201
  62.0689869  49.6731567  18.7007451  58.9330673  42.0464849  18.5553861
  59.7974014  42.1677494  18.1623828  58.8695335  42.7393103  19.2127943
   9.8768651  80.6704617  63.5425425   9.9888885  80.3695393  64.4442797
  10.7164800  81.0714149  63.3177996   7.7876586  88.0852509  79.7380400
   7.9166979  87.1504402  79.8983860   6.8763006  88.1559849  79.4540405
  41.9036579   2.3109038  64.8662519  42.1580219   1.4904445  64.4439077
  42.0311880   2.1487187  65.8009529  28.4004855  46.2218618  67.1078396
  29.1034293  45.8351612  67.6299143  27.6004338  45.8242226  67.4514008
  91.9130802  48.0446339  71.3261318  91.4525700  47.8068829  72.1308947
  92.6225948  47.4056959  71.2584972  36.4443946  23.2790995  89.3325329
  36.3032246  22.4715567  88.8383961  36.5158439  22.9932332  90.2432537
  44.6814728  37.6890635   9.0350497  44.4492626  37.2640920   9.8607063
  45.5020523  38.1447649   9.2227125  51.2556458  67.6902342   4.8423463
  51.1683607  68.6180973   4.6239758  50.9361076  67.2303867   4.0660295
  13.3326638  91.3876534  84.6482086  13.6602187  91.6635799  83.7921715
  12.4609363  91.7784214  84.7084236  29.0553379  56.9152784  89.8690701
  29.8336601  56.3957357  90.0703716  29.0622282  57.6184750  90.5184555
   5.2638072  75.3929520  70.8823633   5.2382451  76.0268974  71.5990877
   5.3767371  75.9257793  70.0952291  61.0700655  44.1860342  11.7485869
  60.3684711  44.5568037  11.2133098  61.4263344  43.4742641  11.2169015
  34.4061136  51.1615562  30.7672191  35.2483273  51.3892460  30.3734374
  33.7861586  51.1873293  30.0383687  17.1979439  97.8580093  59.6573591
  16.9570923  97.3720169  58.8686705  17.5701642  98.6768055  59.3298388
  31.9098568   7.2565103   4.1627529  32.5794363   7.4747419   3.5144693
  32.1473289   7.7703494   4.9346399  97.5844479  51.8169832  90.6776047
  97.8668594  50.9383297  90.9314632  97.5127602  51.7793036  89.7238350
  20.1194739 101.3188076  66.1405039  20.4841542 101.9425488  65.5126572
  19.2042935 101.2215137  65.8774233 100.0070953  57.7411699  14.0174294
  99.2270279  57.2237682  14.2174816 100.0760078  58.3610964  14.7434962
 106.4427471  44.2616367  14.8814011 106.1603355  44.3179798  15.7942510
 105.9787560  43.5000324  14.5337045  84.5592022 102.9299259  80.1112556
  85.4084492 102.4909306  80.1590824  83.9192009 102.2240925  80.2031040
 106.5677929  57.9319763  21.3331056 106.3113594  58.0626154  20.4201961
 106.7617130  58.8120604  21.6557121 101.3556480 102.9425430  80.6325054
 101.2000847 102.1659374  81.1700058 102.2675705 103.1756020  80.8066368
  83.6656952  60.1836109  78.1411314  82.9349709  60.7817078  78.2978153
  84.3788528  60.7491970  77.8448868  70.4537106  69.2255402   8.0644995
  69.8997545  69.9996710   7.9640740  71.0962057  69.4753027   8.7286156
  67.5508213  38.9477229  33.3437181  67.6341295  38.4789658  34.1741133
  68.4134388  39.3372774  33.2009959  12.8866196  81.5049934  68.0930805
  12.4229228  82.3360825  67.9905224  12.7525592  81.2675667  69.0106249
  82.5989819  45.8205271  23.7849164  83.2802582  46.4220572  23.4844732
  82.4369335  46.0764456  24.6929240  17.9261279  88.5535812  88.9038944
  17.0102465  88.5279274  88.6268806  17.8897309  88.4867096  89.8580551
  43.1889153  70.3581476   9.7272485  43.7190437  71.1278725   9.9339235
  43.8209200  69.7065878   9.4234872  99.6816921  70.4591560  52.7504015
  99.6342087  69.5315170  52.9816151  98.7753201  70.7073355  52.5684023
  75.4479837  30.8346653   9.4845015  74.9051857  30.7089996   8.7061656
  76.3156796  31.0457563   9.1398549  11.6352403  57.0612383  62.6128006
  12.1786141  57.0925713  63.4001970  10.7707071  57.3482275  62.9068232
  14.5862556  96.0367775  64.2029190  13.7461591  96.1529255  63.7590933
  14.5881200  96.7029285  64.8902798   7.2516984  68.2817268  71.1787271
   7.8589851  68.3397198  70.4411125   7.5199807  68.9884043  71.7659807
  19.6616971 105.0631809  91.1808491  19.5216823 104.9704456  90.2384949
  20.1633191 105.8735466  91.2698555  58.6880970  59.8507881   6.2920254
  58.2391787  60.1461744   5.4999065  59.4861650  60.3782129   6.3258386
  51.5924692  36.9934535   0.4403234  51.7364073  37.9366231   0.5174297
  51.1457872  36.8872094  -0.3995696  62.2420788  42.3237228  15.0319576
  62.8385735  42.8322506  14.4825673  62.7714396  41.5902758  15.3451085
  16.5868795  97.0801163  84.6707535  16.0380816  97.4179363  83.9629936
  16.7149293  97.8290939  85.2528858  69.5079088  20.8601761   8.7221372
  70.3394461  20.4942417   9.0235847  69.0994024  21.2105036   9.5137340
  12.6798820  51.9398022  73.8313675  13.1055284  51.9274807  74.6886349
  11.7961848  51.6118574  73.9979935 103.9206600  62.4944544   7.7847421
 104.7246838  63.0000305   7.9037768 103.6529541  62.2576571   8.6727136
 108.4493732  70.7904482  22.1737480 108.2800007  70.9826803  21.2514710
 109.3900299  70.9327745  22.2792482 107.5711536  34.3610072  19.5695078
 107.7991104  34.5972395  18.6703646 107.5478649  35.1954913  20.0378275
  37.3789954  30.2809501  42.1894693  37.4300814  30.4845595  43.1233692
  36.6466904  30.8076358  41.8692112  40.8942270  23.1439233  82.6640511
  41.4157200  23.6069083  83.3197308  39.9873114  23.2867646  82.9348469
 109.2551517  90.3454876  85.7877254 108.7460232  90.5869770  86.5614891
 110.0004673  90.9460735  85.7944012  85.7889652  80.4557323   1.1379520
  85.3385925  79.9810553   1.8365771  85.4661274  80.0562286   0.3302345
  87.6976967 102.5219917  52.9981518  88.2060814 102.2418785  52.2370291
  87.0665455 103.1499672  52.6466799  83.8296890  14.3159008   5.7353264
  83.6756134  14.0539467   4.8276520  84.7649670  14.5164084   5.7712823
  66.4993286  22.8784585  31.1050653  66.3850689  23.0830216  32.0331454
  65.9104395  22.1403217  30.9482384  69.6655893  78.1023836   7.6880139
  69.4464970  79.0276194   7.7983242  69.3493462  77.8842354   6.8112969
  19.0614855  80.2334881  77.9846430  18.7311411  80.8727455  77.3534155
  19.9931526  80.1541138  77.7798796  75.4074049  48.3494854   8.6479169
  75.3648806  47.6157427   8.0346936  75.2333117  49.1217422   8.1098223
 105.5889702  30.4235005   4.4881082 105.0661373  29.8912406   5.0877559
 105.9319496  29.7981358   3.8497430  87.8578377  48.6078978  10.9944105
  87.9623604  48.6976480  10.0471771  87.2059917  49.2690754  11.2271619
  36.9502544  98.4031773  89.3072796  37.7070594  97.8187847  89.2628765
  36.7092252  98.4129620  90.2335835   9.9113351  22.2199678  83.4201717
   9.3745917  21.5348244  83.8185596   9.3852913  23.0152822  83.5037327
  99.7202206  57.3242998  26.2140226 100.4767609  56.8284082  26.5270281
  99.1582775  56.6686392  25.8010292  69.4506741  31.9048285   2.4140747
  69.9680948  32.0286322   3.2098025  69.6843529  32.6483226   1.8583372
  82.1840382  39.2557788   1.2236318  82.5801945  39.1032386   2.0815499
  81.3498592  39.6832681   1.4176065  14.5055604 103.4243107  87.8718472
  14.0416372 103.9136505  88.5512257  14.7312820 102.5922966  88.2878113
  91.7631721  48.6599207  47.5709915  92.0321941  47.7882767  47.8609848
  92.2513199  49.2608643  48.1338501  62.1689653  24.3256712  14.7848117
  62.8588057  24.1847706  14.1363513  62.3132086  23.6430407  15.4401290
  50.8660221  50.3228426  15.0829625  50.8850956  49.5565987  15.6563210
  50.0069714  50.2859402  14.6623659  31.0610604  11.2694955  77.9317904
  30.9926438  11.4208567  78.8744688  31.9617510  10.9727895  77.8015995
  53.4966516  89.7039127  10.8523965  54.0615988  89.4257736  11.5733027
  54.0047359  89.5152378  10.0634193  37.1841264  95.1309967  68.6053753
  36.7315912  94.4746876  69.1351891  38.0380249  94.7408295  68.4186792
  37.7596259  48.0263519   4.8141295  37.6114750  48.1121302   5.7558966
  36.9283605  47.6999044   4.4696575  17.6051390  11.2226725  88.3677769
  17.0581424  10.6064630  88.8549232  17.8649902  11.8768561  89.0164375
  42.8783894  31.7193580  13.3758044  43.6040020  32.1316075  13.8445985
  42.2496939  32.4276686  13.2369995  86.0947969  26.1102645   0.0257095
  86.5842905  25.4352681  -0.4444042  85.8768287  25.7067125   0.8658680
 106.7097378  87.8395939  90.1005268 107.5393867  88.2000828  90.4134846
 106.3112736  88.5531998  89.6022987  62.8494263  19.0796840  14.5689261
  62.8864717  18.3713615  13.9261675  62.6437330  18.6426795  15.3953338
  63.9146662  76.4021492  20.9116912  63.2372236  76.9039297  20.4583478
  64.1973972  76.9726706  21.6263938 102.6884079  56.5113497   9.2236304
 103.0943394  57.0437765   8.5395479 102.5424099  57.1212196   9.9468023
   9.1109002  80.2326870  85.2900600   8.3859915  79.6731997  85.5688477
   8.9329153  81.0782528  85.7018471  47.4454069  15.1047063  76.9426441
  46.7777872  14.4716179  77.2066832  48.2352352  14.5797801  76.8128061
  41.3602591  98.0138683  78.0828571  41.2027216  98.1490993  79.0172672
  42.1121311  97.4224091  78.0498600  17.4302638  83.2694435  85.0059795
  17.8966546  82.5268459  85.3897190  16.9486940  82.8946400  84.2685223
  89.7835922  84.5311737  19.4522345  90.2770805  84.9897957  20.1322126
  90.3086376  84.6416187  18.6595404   9.0770197  94.2494869  86.6746712
   8.5811561  94.6333885  85.9514999   8.5295135  93.5278416  86.9840145
 106.2580776  90.4550266   5.9672546 105.9260464  89.7786045   5.3769696
 105.8358288  91.2608814   5.6697088 102.4638081  54.0052938   7.7428162
 101.5795517  54.2517519   8.0140692 103.0217648  54.7064447   8.0794340
 106.0281467   5.7431310  75.2035761 106.1427975   4.9772507  74.6409798
 106.8005753   5.7428485  75.7688904  70.7061148  63.4107447   9.8250055
  69.8831463  63.8655376  10.0042248  70.4393387  62.5397539   9.5309991
  83.4872627  66.3725567  16.8053436  84.0040874  66.6157913  16.0372531
  83.8179302  66.9361639  17.5047994  83.6450672  72.6743364  89.7889614
  83.8498688  72.4787283  88.8746166  82.8807449  72.1322918  89.9844646
   0.0384059  38.8561273   8.9048356  -0.3680743  39.7036433   9.0857297
   0.5471165  38.9999247   8.1068581 109.2018032  60.4304314  73.5701561
 109.9197006  60.6920671  72.9936218 108.7780666  59.7052288  73.1110668
   6.5941888  93.6254215  80.9322453   5.9450448  92.9340172  80.8026123
   6.6451186  94.0680408  80.0850582   9.3940747  99.2543316  84.9106026
  10.2769005  99.6241951  84.9178123   9.2133760  99.0479279  85.8276558
  50.3575420  26.6445541  18.9002275  51.2961149  26.8321562  18.8893640
  50.2211046  26.1519480  19.7095203  26.9334435  35.9162402   7.1379119
  27.7581787  35.8322620   7.6164412  26.9148946  35.1554775   6.5572828
  70.1620770  11.8260455  90.2520943  70.4146481  12.4776912  89.5980358
  70.6755161  12.0533156  91.0273170  63.0738926  64.4354391   1.7010485
  63.0207825  63.8482571   0.9469730  62.4445724  65.1304293   1.5082289
  67.8426361  13.0750513  91.7572880  68.4959459  12.4800527  91.3893318
  67.7266741  13.7479067  91.0864353  16.7915440  77.9113150  83.3382702
  17.6780105  78.1015778  83.6452007  16.9121206  77.5803947  82.4482250
 105.5528545  50.2595615  36.5359735 105.6168079  49.3759871  36.8985105
 105.1532459  50.1367998  35.6748867  23.9735603   1.3438623  62.0748138
  24.0916014   0.5890778  62.6515245  23.0707216   1.2700824  61.7655087
 101.5836048  64.5132208  59.3257380 100.6498528  64.6838427  59.2023039
 101.8136024  63.9143324  58.6153460   6.9309920  46.9538975  83.5580349
   6.0231978  46.7020082  83.3886433   7.4233490  46.1359262  83.4892178
  90.6809807  73.1788540  83.8576221  90.0347710  72.8137589  84.4620609
  91.4926243  73.2088089  84.3641472 104.1869164  98.8318253  51.4214849
 104.1141415  97.9032040  51.2010479 105.1287460  99.0023422  51.4322615
 104.4728279  37.7609515  40.9639072 104.2305470  38.6672354  41.1541176
 104.9495411  37.8093410  40.1352739 105.0167274  91.2198925  34.5428896
 104.6742725  91.8212605  33.8815904 105.0178432  91.7299843  35.3528547
   3.9238584  55.2687025  82.9840088   4.3638268  55.2544260  82.1340370
   3.0885726  54.8277569  82.8287792  78.3309221  66.9649696  41.0812426
  78.3369637  66.3265371  41.7944050  77.4132538  67.2248697  41.0002089
  44.8108101   3.5128984  75.2237272  44.6731853   4.3788850  74.8398495
  45.7146025   3.5312992  75.5384445  98.2599640  94.8002625  42.9412031
  99.2079544  94.7578335  42.8157759  97.8955460  94.6282578  42.0729589
 108.7744141  84.8929977  56.4287519 107.9712582  85.3913879  56.2778282
 109.4557285  85.3957462  55.9823418  24.9841070  75.6855488  64.8731899
  24.7972441  74.7608566  65.0352335  24.1268396  76.1107445  64.8961687
  20.3045011   4.0789410  55.7102919  20.7540083   3.2385442  55.6213760
  20.9175444   4.6279147  56.1992073  95.9583950  94.4858646  32.0382452
  96.5704346  93.9259243  32.5158405  96.1441803  94.3114185  31.1155963
  36.6693401  69.8531628  55.6758451  36.4239573  69.3813658  54.8799658
  37.0530176  69.1838074  56.2424040  41.2850046  14.8525369  43.4268618
  40.9913206  13.9746773  43.1832552  40.6059790  15.1766717  44.0185452
  16.8825340  74.6937656  81.2910843  17.3217571  74.0626335  81.8611622
  17.3332632  75.5215263  81.4580727  88.0991745  69.0109062  58.2650805
  88.2124996  69.0558720  57.3156786  88.9308262  69.3241930  58.6206675
 108.1032658  70.7616615  74.6694040 108.2747269  70.0580740  75.2953434
 108.9558601  71.1753225  74.5345640  12.6477432  20.7258391  58.4894228
  13.5844624  20.6671906  58.3014059  12.3721278  21.5458989  58.0798292
  17.5190115  76.6445827  63.7517786  17.1963370  76.2352085  64.5546007
  16.9094789  77.3642683  63.5882044 111.0090351  66.2425137  24.4786429
 111.8453693  65.9370756  24.8300481 111.1827278  66.4012575  23.5508156
  80.0846195  14.6300447  27.1352077  80.3011131  14.6384966  26.2028503
  80.2653408  13.7326455  27.4149323 111.4297009  59.7085953  68.7174606
 111.4548111  59.6151543  67.7651644 110.7714462  59.0750360  69.0030146
  69.1300774  46.7670059   4.1212791  68.8827801  47.6867199   4.0253448
  69.5646477  46.7234278   4.9730310 108.4963131  82.1703815  41.6963053
 109.0765762  82.2385883  42.4545097 108.4561348  83.0597496  41.3446808
  75.2651930  79.9649668  50.0700092  75.5224514  79.1130209  50.4224873
  76.0930538  80.4190254  49.9128342  58.1836367  83.7283421  36.7657971
  58.7794781  83.2939816  37.3761559  57.3261166  83.6722565  37.1873975
 108.0041790  76.8355417  54.3884611 108.1346703  77.7834558  54.4141579
 107.5318718  76.6367817  55.1969481 107.5294399  91.8486786  58.8319016
 108.3149719  91.8387508  58.2850361 107.7872086  91.3869476  59.6297741
  61.6986656 100.3649426  88.8224983  62.1412849 100.4891586  87.9829216
  62.3374033  99.9007988  89.3636227  14.7223091  86.9062424  68.8373137
  14.9094617  87.6660442  68.2860231  14.8247397  86.1551762  68.2528162
 109.6154118  77.9819679  76.5897274 110.2367306  77.3012447  76.8481922
 108.8379860  77.5012684  76.3055325   5.8563811 105.6742668  64.9122477
   5.5345577 105.3156662  64.0851641   5.1313305 105.5511761  65.5249310
 108.0943203  67.0041800  54.5228720 108.2999229  67.8746033  54.8639393
 108.9252853  66.5304232  54.5588112  27.0026565  66.6772318  22.0334578
  27.4872589  66.1630487  21.3876963  26.1083770  66.7072725  21.6934657
  10.9137595 103.2607555  78.5707188  10.9721470 103.8230133  79.3431807
  10.2762377 103.6964035  78.0050230  19.6903479  53.6520672  85.2546787
  20.1693439  54.4569016  85.0570965  18.8348794  53.7753582  84.8433399
  94.0128803  91.3188457  88.8664532  93.8055611  91.0897160  87.9605007
  93.3508301  90.8630943  89.3862820 111.6106701  88.7303257  67.2048903
 111.0724449  88.6263275  67.9895782 111.1171341  89.3386745  66.6548300
 100.5716515  67.1604538  91.0919857  99.9915886  67.8056479  90.6876659
 100.7671738  66.5405655  90.3893280  28.7128901  10.6357658  45.6847906
  29.3409419   9.9307859  45.5273533  28.9446378  10.9742963  46.5496159
  30.7184291  98.0743313  44.9449825  31.0489559  97.2971630  45.3955364
  30.6093574  97.7958012  44.0357208  31.7073178  79.5503426  72.2989941
  30.9397888  79.4267702  72.8574371  31.8881774  80.4891872  72.3447752
 104.7944736  81.2671185  53.7077618 105.5210686  81.3264751  53.0874681
 104.5603371  80.3390217  53.7143040  99.3671227  89.7458839  24.4628525
  99.1319847  90.4674816  23.8795471  99.7406197  90.1730347  25.2337432
  77.0002174  31.2118864  23.2094526  76.7885542  30.3248310  22.9186535
  76.5273428  31.7819452  22.6031041  48.7499571  56.7216349  51.5649271
  49.4063711  56.5197706  50.8981419  48.4572554  57.6078367  51.3523102
   2.6818410  87.5228882  73.9437008   3.3900389  87.1345901  73.4299707
   3.1280923  88.0393028  74.6148252  13.0874562  78.2874680  76.4645004
  13.9589822  77.9348040  76.6442299  12.5761986  78.0715561  77.2443914
  31.9095564  11.4086711  70.2686071  30.9575009  11.3979125  70.3671503
  32.0707965  10.9414840  69.4488716  85.8233356  26.1811495   8.8017327
  85.0967216  26.8036199   8.7736768  85.5414391  25.4585004   8.2408887
  71.5378237   8.0493492   4.5842695  71.6167879   8.9865792   4.7620234
  70.7047415   7.7991503   4.9837798  87.8886890  66.1692667  13.3571732
  88.5495567  65.5662584  13.0167663  88.1008434  67.0103931  12.9525423
   4.8085552  67.6252031  44.8130178   5.6503505  67.8979254  45.1780272
   4.5486063  68.3492470  44.2434406   4.4943577  66.2824345  77.6000977
   4.3311894  67.0884180  78.0899906   4.2509392  65.5812979  78.2045650
   7.9588294 105.6001186  42.5461769   8.0805784 106.0661411  43.3733606
   7.0683616 105.8227539  42.2746468   1.6677487 101.6074085  32.6799941
   2.0455681 101.0859489  31.9717765   2.1770683 101.3655376  33.4535074
 107.2580910  62.1723127  64.0996790 108.1029224  62.2353458  64.5452356
 107.4271393  61.6093302  63.3442307  23.3088517  96.1442566  52.9452085
  23.0594182  97.0549107  53.1024694  23.6774826  96.1460304  52.0618391
 101.6421509  44.0271950  62.1945381 101.3446331  44.8460484  62.5910187
 101.3467598  44.0799952  61.2855911  84.5050240  53.2211637  55.6103992
  83.7951565  52.6224089  55.3784180  85.2390289  52.9468393  55.0606632
  15.4734468  30.9155512  60.1598215  16.0072482  31.3230371  59.4777346
  15.8419907  30.0378442  60.2600098 111.9212532  52.6839447  88.3678246
 111.7274094  53.3196068  89.0567207 112.8244400  52.4156904  88.5366917
  11.5428388 100.5195141  84.4552994  12.1941769 100.0428772  84.9698925
  12.0582414 101.0353947  83.8352489  26.0046887  52.7891445  83.0652142
  26.8866396  52.9624796  83.3943748  25.4675651  53.4869814  83.4403801
  99.0308380  84.8774242  37.1174216  99.1960335  83.9676571  36.8699002
  99.6974754  85.0711632  37.7764344  82.2653103  85.6779289  60.5976391
  82.0409012  86.0004425  61.4704800  82.9839802  86.2417030  60.3114414
 104.8150444  97.3610687  36.8610477 105.5462265  97.6115799  36.2963867
 104.0340900  97.6002312  36.3618994  33.3514571 102.5547791  71.5828705
  32.7388525 101.8419838  71.7641497  34.1390610 102.1173000  71.2595701
  20.1663685   6.5006906  39.5732880  20.1803041   7.0193696  40.3776598
  19.2899203   6.6390634  39.2142296 104.5921421  62.9563618  61.4669657
 104.1611099  62.3464680  60.8682394 103.8800716  63.3165264  61.9956207
  33.9645457  78.2136440  73.3431721  34.1401148  79.0748549  73.7222815
  33.2293344  78.3593988  72.7478170  32.6010561  69.4233942  66.4880800
  32.1246266  70.2242613  66.7068434  32.7603436  69.0012836  67.3322868
  30.5602694  78.0588436  74.4813538  31.0780931  77.3445129  74.1101122
  29.6651578  77.7203321  74.5017242  97.8476524  88.9267159  48.2886505
  97.0038128  88.4749603  48.2799053  97.9608727  89.2401123  47.3913240
  63.8094521   8.9204764  53.2289696  63.9127827   9.5028716  53.9815474
  64.6490002   8.4657621  53.1609488  17.5744307  91.9924164  58.5536957
  18.3084083  91.4124107  58.3509731  17.1567750  92.1547985  57.7078676
  27.5981225   0.7667989  35.4430819  28.0048360   0.8492536  36.3056421
  28.2495775   0.3063268  34.9141264  52.7153111  89.0063763  53.3082199
  51.9054985  89.1579533  52.8209209  52.9164410  89.8526573  53.7076902
  14.4863379  92.2069836  54.1098928  15.1410604  91.6446877  53.6958933
  14.6400023  93.0725193  53.7311029   2.0092382  88.7180996  50.9201622
   1.7705765  89.0061951  50.0390959   1.6525684  89.3930054  51.4976692
  36.0098672  15.9414077  52.6465988  36.5778995  16.6988242  52.5055599
  35.7081437  15.7018352  51.7703581  11.0260701  95.2177238  64.4945812
  10.1274800  95.2395439  64.1655064  11.5628386  95.4662418  63.7420225
  26.9845963  72.8559637  65.4124260  26.1225462  73.1048346  65.0790024
  27.5887990  73.4714603  64.9972916   1.2632756  77.6167631  47.0722675
   1.4781018  77.0926428  47.8438759   1.3527676  78.5233593  47.3660421
  19.3537676   5.5313396  67.6732159  19.2456102   4.6146750  67.4197197
  19.1542280   5.5461276  68.6092663  24.7861671  63.7302113  72.7623177
  25.5673385  63.8816833  72.2302866  24.0654230  63.7214661  72.1324921
  15.4621840   1.3423270  51.3874817  16.1596537   0.9719615  50.8465576
  15.9106243   1.9558993  51.9694281  49.6165609   8.6057901  40.8162308
  49.0017414   7.8808290  40.9287405  50.4354858   8.2863158  41.1950779
  36.3793254   3.5917050  56.4401245  35.9371018   4.1892222  57.0431519
  37.1998096   3.3705771  56.8807364   1.4111619  79.2250013  70.4077721
   1.8320704  80.0845242  70.3906059   0.7702663  79.2862654  71.1161041
  16.2017274  82.7812672  10.4212093  16.7370236  83.2024384   9.7486728
  16.2347233  81.8494320  10.2048075   4.5102137  46.7461824  47.6514435
   4.7154990  47.3045254  46.9015503   3.9694554  46.0453176  47.2872972
  32.9764080  85.6830311  77.2676611  33.6663222  86.3454247  77.3063278
  32.1733785  86.1612606  77.4742365  58.1723309  19.7790337  62.5704813
  58.9924860  19.4445395  62.2075844  58.1835079  20.7140040  62.3656940
 102.0700073  89.0918350  51.2359715 101.9254303  89.1842365  52.1776676
 102.3963356  88.1982040  51.1302996  14.1952288 100.1273632  49.0023947
  13.5368276 100.1067162  48.3079052  15.0182271  99.9230862  48.5583448
 109.8765659  74.0671730  61.5876389 110.3794289  74.3970442  62.3323154
 109.1140652  74.6437931  61.5392447  11.9015110  88.7339878  83.5833836
  12.2586334  88.9777565  84.4373512  12.3574972  89.3017864  82.9621506
  36.3537526  74.3826675  52.1810246  36.4964533  73.8316393  51.4114571
  36.1945581  73.7630749  52.8930569  24.0010667  96.4871979  49.8202324
  24.3325329  97.1410275  49.2047119  24.3452334  95.6554985  49.4945669
  23.1074667  95.2600956  71.5289783  23.6577654  95.0258636  72.2763300
  22.7996182  94.4211674  71.1859608  55.6645250   3.3489001  34.9823904
  56.2442398   4.0222460  34.6263385  54.8969698   3.8315120  35.2892661
  19.4666541  85.4963875  62.4602985  19.6221197  86.3568211  62.0707893
  18.5553229  85.2973938  62.2455692  90.9132957  99.8493862  28.8105464
  91.7242432  99.4698715  28.4720612  90.5264378 100.2976227  28.0584478
  95.7967758  69.2228127  70.6942320  96.1824417  68.3539009  70.5825090
  94.8844147  69.1163254  70.4250050 101.2657452  94.8428822  70.3791332
 101.9964504  95.4431820  70.5272770 100.5414963  95.4086113  70.1114702
 111.4234829  89.4373512  51.8830109 111.7904949  89.2118549  51.0282135
 110.5306339  89.0931702  51.8586588  33.1636596  80.1490498  42.1099043
  32.6189423  80.4056644  42.8539896  33.1906271  80.9272194  41.5531683
  44.9689150   5.5478883  78.0807209  44.5279312   6.0523295  77.3971272
  44.2754650   5.0156295  78.4706688  40.8676672   0.9153610  54.5949507
  40.8820677   1.8621820  54.7347927  41.7895699   0.6579593  54.6033859
  30.5141687   8.6247051  44.3664551  30.6338859   7.8839338  44.9607277
  30.2021122   8.2303721  43.5519934  22.6360059  96.3302898  67.7323151
  22.4897122  96.9211864  66.9936228  22.0630860  96.6637039  68.4228468
   4.7088513  80.2154255  75.5736685   3.9361233  80.1109695  76.1288357
   5.1238245  81.0181522  75.8893347   0.5411002  73.3943701  73.5437965
   0.7424985  74.1079521  72.9384327   1.3833222  72.9666328  73.6985111
  27.3158932  81.1662674  29.1295195  27.8768396  80.4545021  29.4376922
  26.4254451  80.8640575  29.3084121   9.7997850  91.0966301  39.2103362
   8.9495802  90.7164669  38.9893055   9.6679068  92.0413017  39.1300368
  24.3397164   5.1558071  52.9925394  23.3853316   5.1665652  53.0650854
  24.6127033   6.0219032  53.2951736  92.7877331  80.2368450  52.4419737
  93.3881760  80.4187393  51.7190456  92.9524136  79.3207693  52.6653814
  24.0821266  74.6589422  67.7817726  23.3727551  75.2444315  68.0467701
  24.8354197  74.9465990  68.2975578  31.2949014 101.9948959  47.0940208
  30.4778981 102.3047543  46.7032242  31.9710493 102.5526428  46.7093515
  45.4940939 104.5543098  69.8769522  44.8425055 104.9020672  69.2680740
  45.9317064 105.3298283  70.2280951  12.6267183  61.8271923  70.7617569
  11.9652236  62.3534298  71.2108994  13.2041967  62.4695158  70.3492403
  31.4274645  28.3323193  48.3532763  31.4650702  29.2694449  48.1619310
  31.8176270  27.9151821  47.5851631   8.6695307  75.2301502  40.5412102
   8.3719039  74.9114275  41.3933039   8.1295085  74.7584486  39.9070907
  37.4954581  82.0032120  81.3475800  38.2405472  82.5881195  81.4852810
  37.0520902  81.9764233  82.1954823  15.5740690  49.2492008  69.5467424
  15.1981139  48.3732891  69.6342993  15.2658832  49.7205830  70.3207302
  20.0299144  64.1683912  75.4753828  19.0912259  64.1271496  75.2926445
  20.0939655  64.0634108  76.4246511 111.2036037  86.8665504  63.9829731
 111.4824295  87.1381569  63.1084919 111.8425560  86.2028408  64.2427254
  59.7266769   4.7856763  64.9645042  59.9788237   5.2249801  64.1523075
  59.7530079   5.4751992  65.6279039  84.8211956  83.4266758  51.9124699
  84.8358250  82.7706909  51.2155485  84.0254784  83.2322598  52.4077225
  17.2843409 102.4955940  33.4042740  16.5638101 101.9735718  33.7572050
  16.9927895 103.4022236  33.5004592  14.9141765 104.2886734   5.1894414
  15.0644088 103.3615398   5.3740710  13.9622486 104.3863010   5.2125287
 104.6594429  81.4211464  46.4576244 104.5388603  80.4732513  46.4011526
 104.1501331  81.7713451  45.7267332  10.8893359 104.3601418  43.8356972
  11.4264500 105.1183224  44.0656996  10.0251627 104.5609570  44.1950130
  10.2238798  94.2056370  71.1032104  10.2199376  93.5153580  71.7663336
   9.6964455  94.9073696  71.4848137  25.8213592  78.5624790  61.0403013
  25.5918002  77.8376198  60.4588270  25.1885796  78.5048723  61.7561960
 108.9719772  93.6879349  70.3613520 109.5571709  92.9675102  70.1273346
 109.5487022  94.4471836  70.4458857 109.6883488  92.9683399  60.4300833
 108.8670731  93.0064201  60.9202766 109.9760723  93.8795280  60.3736448
 102.9862118 103.3449745  56.2342882 102.1222782 103.3212280  56.6457176
 103.0952930 104.2551231  55.9586525   6.6670012  90.2257824  32.4735117
   6.8933481  90.9719849  33.0286455   6.4942259  90.6102848  31.6141295
  95.3549862  86.0026264  62.4666786  94.7691917  86.2440968  63.1841516
  95.9557629  85.3649616  62.8522730  50.2516222  46.7880583   6.0141939
  49.9568224  47.5253153   6.5487778  50.2858543  47.1366978   5.1234013
  76.1556338 105.9527566  48.3341694  76.7279069 106.6179970  48.7165165
  76.6105936 105.1256430  48.4926844 105.3589916  18.0091274  57.5654602
 105.4701805  18.9272404  57.3186016 105.9281731  17.8951299  58.3265638
  36.2927079  71.8630075  43.6920071  35.7582569  71.6892958  42.9171419
  35.8120894  72.5406313  44.1674662 111.1786461  64.2574024  30.3400683
 111.9756985  64.6911430  30.6447268 110.4716110  64.6951389  30.8141041
  94.1765785  51.2481976  38.4468770  95.0243092  51.3181496  38.8858485
  93.9932823  52.1351910  38.1372356  95.6099606  40.2678728  68.5610104
  96.2761593  39.6974444  68.9444542  94.8064709  40.0484753  69.0327072
  13.6836743  59.2823076  70.4154015  14.5575607  59.5929813  70.1786804
  13.2973886  60.0063658  70.9081078   0.3997785  58.1166697  16.7407060
   0.0985987  58.2062006  15.8365464  -0.1470678  58.7258720  17.2367537
 101.4073467  29.7320747  72.1044827 101.5571594  30.6586313  71.9166517
 100.4927731  29.6891117  72.3836565 102.6056767  80.5499458  22.8953123
 102.5134850  79.6145296  23.0762386 102.5096607  80.9698296  23.7501240
  93.3944702  72.4888134  35.3223038  93.2464218  73.2485199  35.8854795
  92.5170708  72.2114563  35.0587225 110.7322693  77.9062033  57.3616028
 111.3475227  77.8279066  56.6325140 110.1089668  78.5750961  57.0782328
   0.8163044  76.8724298  28.3551073  -0.0758807  76.7773867  28.6885810
   0.7158785  76.8878031  27.4033141  38.0520105  79.2127037  25.5925083
  39.0002489  79.2028427  25.7228088  37.6898313  79.0000439  26.4526463
  29.4011617  83.9833355  73.3717299  29.9314356  83.9613724  72.5751352
  29.5803213  84.8418999  73.7551212  82.4409389  82.6631451  45.7552052
  81.5474129  82.9853058  45.6366205  82.7854061  83.1760311  46.4863157
   7.1603841  72.2738791  62.0985699   7.1490359  73.2137108  62.2797203
   7.1340936  71.8630552  62.9627275  30.5470824  69.0548897  38.9170146
  31.2671661  68.4292984  38.9966536  30.5878592  69.5708036  39.7222495
  92.6204014  50.2344513  70.0039101  91.7542839  50.5362225  69.7300291
  92.4444008  49.4807816  70.5671549  91.7944431  67.6314783  79.5629358
  92.4681473  67.1091032  79.1276360  92.1894646  67.8845310  80.3972912
  19.3911803  66.8436003   3.8832173  18.9919221  66.3339472   3.1781775
  19.4971907  66.2184381   4.6002692   8.4339726  66.6305971  64.7178459
   8.3790672  67.2987461  64.0346193   7.7640712  66.8824148  65.3534985
   2.9430109  59.7929525  53.9603424   3.5644901  60.5205393  53.9851093
   2.9685175  59.4259834  54.8440361  27.2043562  62.7034283  71.6983318
  28.0431390  62.6249170  71.2438965  26.9121885  61.8000126  71.8196344
  88.9390755  59.0109301  75.3143358  89.7639561  58.5335827  75.4034710
  88.9203548  59.5997429  76.0687733  80.4913807  59.1247654  21.4348888
  80.7928944  59.9899912  21.1579347  80.2010822  58.7022114  20.6265497
 107.9994774  51.9948244  70.2272511 108.5957623  52.2042751  70.9461451
 107.8571510  52.8305960  69.7828913 106.8053532  49.1134167  53.6361027
 107.2377777  48.2595396  53.6476183 106.3466263  49.1609144  54.4748783
 108.8823986  65.6923485  74.3929005 109.2391300  65.9722757  75.2358818
 109.4135189  64.9346828  74.1477728  15.7712424  98.2548332  75.1783705
  15.9970117  97.9399109  74.3031120  15.4669058  99.1516209  75.0391340
  99.6246147  75.6111574  76.3670921  99.9103165  75.7272482  77.2732544
  98.7099457  75.8933115  76.3663244  95.1659679  63.1719303  76.1156368
  94.8711777  63.4263182  75.2412128  96.1064148  63.3501959  76.1126280
  11.0372984  83.7140179  41.6107798  11.3296592  82.8310108  41.3848257
  11.5000856  84.2840385  40.9966612 109.5150948  70.1608849  79.5671797
 110.3912926  70.5199957  79.7070312 108.9524937  70.9300852  79.4775248
  95.0887966  56.2430573  61.4089155  95.4541969  55.5818892  60.8210611
  95.7265091  56.3103962  62.1195650  31.2350035  77.4822855  52.8008032
  31.6465449  76.6856098  52.4658680  30.3239179  77.4200058  52.5139618
 105.0780582  61.6590500  55.9339380 104.5821571  62.1734619  55.2969980
 104.6460247  60.8049250  55.9404421  89.4364262  87.5348759   4.3270457
  89.9890137  87.2478390   5.0540161  88.8008022  86.8279076   4.2156896
   7.2629237 104.5480156  34.3430734   7.1094209 104.4984150  33.3995652
   6.8849432 105.3880119  34.6034026  88.6040211  54.5744324  34.9713206
  88.9937878  53.7445164  35.2461958  89.2262173  54.9333477  34.3386507
  14.5852554  53.1023169  27.1684861  14.0125120  53.4003592  26.4618254
  15.1232851  53.8655663  27.3787546  90.6686974  84.8322964  28.6565542
  89.9587536  84.7095490  29.2867422  90.6878567  84.0169239  28.1555247
  17.4813497  82.0570183  49.2683458  17.8572381  81.8825245  50.1311827
  17.5242507  81.2157154  48.8138103 111.0933781  44.9113035  77.7776194
 110.7431698  45.7325315  77.4324036 112.0060539  45.1094961  77.9873228
   9.3679464  97.7756214  23.0070305   9.2663449  98.5417271  22.4422359
   9.3841296  97.0332241  22.4030280  81.1961746  54.7468758  27.3400211
  81.3369846  54.4246578  28.2302904  80.7600307  54.0235472  26.8896866
  30.4433465  87.9593563   9.6762186  29.9153709  87.8874207  10.4713917
  31.3307762  88.1287384   9.9924582   2.6140356  92.8419685  45.4436731
   2.8789258  93.0825615  44.5558786   3.3778164  92.3951817  45.8087158
  12.0678687  90.2840805  65.5557442  11.7350507  91.1137009  65.8980846
  11.7980433  89.6324444  66.2028885  11.7405379  70.5924559  67.1042776
  12.0722330  71.4572144  66.8626213  10.9333062  70.4957819  66.5990400
  97.5053215  85.0619030  73.7645864  97.4442863  84.1724205  73.4162617
  98.1996059  85.0146294  74.4218302   7.9867679  76.4645576  20.3049707
   8.6070973  75.9140539  20.7828498   7.7492374  77.1527863  20.9263802
 107.3317337  71.0998774  28.6589503 108.2749653  70.9377718  28.6427093
 107.1265507  71.2274504  29.5851564   8.3556962  73.3858204  32.5691819
   8.5492831  72.5316334  32.1830153   7.9544246  73.1814194  33.4138322
  36.8693972  91.1863327  23.5023665  37.0539355  90.4709721  24.1110039
  36.7308068  90.7540703  22.6596498  25.4318500  58.4987307  73.5082674
  25.1826835  57.6019764  73.2847071  24.9215269  58.7006760  74.2924976
  95.7089615  62.8097153  67.2063780  95.0380135  62.1294260  67.2634745
  95.9772778  62.8049803  66.2875605  18.3093429  77.4324512  40.4941130
  17.9235363  76.8122435  41.1127615  18.9190292  76.9065332  39.9764991
  92.1556854  76.3413095  17.9255116  92.2975254  77.1862507  17.4986768
  92.2698307  76.5221405  18.8585198  19.9139595  73.8066435  45.2961016
  20.8415008  73.7173986  45.0771618  19.8705077  73.6221838  46.2343550
  95.4647446  31.3320041  66.6102266  95.3974819  31.8528819  65.8099794
  94.6407795  30.8464861  66.6499472 109.4263744  37.6263094  50.2687025
 109.8464584  37.9489207  49.4714069 108.9326191  38.3765721  50.5996799
   7.2403961  85.9493828  61.4396286   6.9566435  85.5185986  60.6333160
   6.5027022  86.5076733  61.6852903   8.1153667  49.5950508  40.4625273
   8.6743945  48.8222170  40.5427980   8.7242037  50.3149319  40.2972269
 105.0721169  75.1873350  60.9353638 105.7577324  74.5971870  60.6225061
 104.7202492  74.7546196  61.7132998 110.1121998  63.4567690  20.4364705
 110.3903389  62.5410748  20.4171157 110.7748699  63.8971710  20.9685898
  14.1119742  78.2042122  19.0828383  14.3153334  78.8606596  19.7491384
  14.9154937  78.1283951  18.5682130  47.7548218  76.7838907  34.9399805
  47.5374937  76.7477465  34.0084791  48.5314798  76.2311029  35.0263476
   5.9035486  27.8641272  19.6640801   5.9460914  28.8060641  19.8289251
   6.6929978  27.5129843  20.0760269 110.1071548  59.6401501   9.6856290
 109.9231911  59.8750210  10.5951464 111.0535240  59.7523546   9.5960033
 101.9529057  54.7602415  74.1226482 102.7467251  55.2551508  73.9197731
 101.2367630  55.3598690  73.9133167  91.3907528  58.4663820  53.1112957
  90.9987164  59.3369293  53.1797218  90.6496239  57.8641415  53.1766415
  24.4034648  66.0734224  20.9359717  23.5131407  66.4216948  20.8883929
  24.3197441  65.2716160  21.4520431  32.0866489  76.3761806  45.8040476
  32.7100968  77.0883512  45.6613874  32.5860405  75.7123518  46.2796259
 112.4492836  68.1351709  38.8908577 112.0715141  67.2724962  38.7196636
 111.6922951  68.7101603  39.0030336 108.8760662 105.8064175  49.6482706
 109.1200256 105.0005436  50.1035452 109.7106457 106.1979485  49.3905354
   2.4905114  87.8312206  44.3166876   3.1398991  87.1318531  44.3902493
   1.6586478  87.4092102  44.5314980  14.0697265  78.0437899  45.8397102
  14.7201002  78.5974026  46.2718725  14.5432234  77.6420546  45.1112604
  53.0944729   4.8848200  35.4754543  52.3176146   4.3334037  35.5685210
  52.7748585   5.6784189  35.0461745  83.5447598  82.2145557  72.2341681
  84.2483425  82.3637295  71.6025400  82.8545570  81.7868519  71.7272949
  20.4185057  85.3227234  48.7936115  19.9814403  85.4018974  49.6415138
  21.2595725  85.7631207  48.9156485   0.3043125  96.8570805  59.1197538
   0.9827594  96.3503933  58.6734247  -0.4276471  96.2473488  59.2129803
   3.3825660  84.3806171  67.0252705   4.0232161  84.8237514  66.4690065
   3.9026776  83.9990616  67.7324677  18.3801949  88.3177280  63.2832432
  18.5676610  88.1896210  62.3533630  18.1725800  87.4417973  63.6086082
   5.9117073  55.4074907  10.4305220   6.7869133  55.2270460  10.0874686
   5.8519846  54.8773813  11.2252855  98.9616585  77.6043844  48.1913710
  98.8654900  77.4592638  49.1326094  98.2862663  78.2482624  47.9780674
  28.1049967  67.9524708  39.1172075  29.0295672  68.1914663  39.0518045
  28.0318737  67.5070810  39.9613142  39.9692822  90.4964924   8.0535942
  39.3495822  89.8807335   7.6623780  40.2507210  91.0489178   7.3243147
  89.6550083  75.0413179  41.3018990  90.3317738  74.7747421  40.6796741
  90.0409031  75.7792377  41.7739153  25.4397273  95.4854965  67.8088522
  24.5290422  95.5972481  67.5360918  25.3901482  94.9316692  68.5879898
  14.9376905  77.6215315  60.1772738  14.2870140  78.2996464  59.9955702
  15.0824606  77.6754808  61.1219215  88.9266014  66.3331842  77.1780920
  88.0759811  66.6599035  77.4712229  89.5261383  66.5524864  77.8913212
   2.1714179 106.3040854  74.3661499   2.6210873 105.4800608  74.1790199
   1.5559571 106.4111456  73.6409044  88.4902382  65.1489973  71.2023306
  89.0511799  65.8307648  70.8325100  88.9815521  64.3378830  71.0721922
   5.1961821  98.4520817  70.1311445   5.7071346  97.7013111  70.4336309
   5.5770183  98.6743259  69.2815542   1.6050802  53.5367393  23.5152006
   1.8569851  54.3746376  23.9034104   0.6528581  53.5878658  23.4321856
  83.1009102  62.1064377  48.5486698  83.4458637  62.8008890  49.1098928
  82.9623985  62.5298023  47.7014351  86.7035580  79.3809843  42.2860432
  86.8780518  79.7927809  43.1323385  86.1329842  80.0005722  41.8313074
   8.9725882  91.0690117  59.4656467   9.7129607  91.2184525  60.0536489
   9.1334915  91.6532135  58.7246752  12.7687109  73.9602900  30.0161743
  12.1270370  74.1676855  29.3368554  12.5064123  73.0978632  30.3381228
  24.3181014  60.5150175  63.2530975  24.4015288  60.1541662  62.3704576
  25.2120972  60.5204821  63.5951090   9.4475228  77.6239777  28.3866978
   9.8231763  78.2446241  27.7622628  10.0582731  76.8869495  28.3887148
  35.7029080  64.7429180  64.6137857  35.2084517  65.5254793  64.8573875
  36.5887737  64.9094200  64.9358940  27.1336675  79.0562487  55.7020998
  26.3954735  79.6554232  55.5912304  26.9254923  78.5640907  56.4962530
  91.5867424 103.6598778  52.6438046  91.0836315 104.4488621  52.8453064
  91.4981842 103.1134033  53.4246683  19.0869355  87.3143196  43.9395237
  19.6435511  87.7698898  43.3079624  19.6982908  86.9569016  44.5835161
  10.8972275  85.8241272  37.3264670  11.0941553  86.7051983  37.6445413
  10.1138079  85.5640697  37.8110862 102.3831272  85.3872871  60.4795599
 101.7999554  84.8717785  61.0366821 101.8145275  86.0481644  60.0843811
  33.2491684  98.1729889  24.1971087  33.9047933  98.8130188  23.9200711
  33.6965466  97.3291302  24.1338682  30.5680299  90.6905556  27.2863221
  30.2429366  91.5030193  26.8984532  30.0924468  89.9986362  26.8266487
  87.5475979  91.7991638  45.7321596  86.6496372  92.0093536  45.4757881
  88.0553246  92.5706100  45.4805374   3.7621161  90.2673626  60.7416439
   3.7390098  90.8535862  61.4979839   4.3087170  90.7234287  60.1017475
  75.8918619  61.1290836  58.1780005  76.2905693  61.1412907  59.0481234
  75.4682016  60.2726603  58.1206656  32.1536279  79.1109943  48.9306021
  32.8308964  78.7361431  49.4936514  32.2646689  78.6633539  48.0918407
   0.3848992  93.2379436  46.9051886   0.4854837  94.0356922  47.4245310
   1.2480307  93.0943966  46.5170813  45.3633833  57.8172302  42.7247000
  45.8019972  58.5052967  42.2242832  46.0660505  57.2163296  42.9724979
  14.9484789  89.2541027  26.7456889  14.7811770  89.8906994  27.4406672
  15.8930576  89.1033268  26.7813063  13.0241835  70.4024696   6.7588180
  12.2899055  70.8580542   7.1705353  13.5212517  71.0945272   6.3226843
  17.3313451  79.7049761  39.1992092  17.4853218  78.8468170  39.5942903
  16.5971327  80.0683308  39.6943212 101.1428833  58.3150053  51.4013481
 101.4972973  58.6549139  52.2229815 100.4261398  57.7399635  51.6693783
  76.5797663  59.1859531  43.3041811  77.0252800  60.0248480  43.1858492
  76.5868521  58.7862206  42.4344683  53.7624264  88.0917645  57.2231293
  53.2210112  87.3283100  57.4237204  54.5873117  87.9271030  57.6799488
   1.5640855  84.8752594  42.4466038   1.9122705  84.4809055  43.2462788
   0.9720150  84.2125702  42.0908976  55.5850983  73.7090254  55.5621672
  55.2613449  72.8501511  55.8337402  54.8078537  74.2676878  55.5582094
  80.8172894  96.3520908  36.1873031  81.7411232  96.1980534  36.3848710
  80.4053402  96.4679432  37.0435190 105.7490349 101.3411236  49.2491245
 105.3006554 102.1004486  49.6214342 105.2111435 101.0897064  48.4983301
 110.9376240  54.8589897  41.3884783 110.1749420  55.2251339  41.8362427
 111.6873646  55.1888609  41.8837547  36.1671925 101.3632011  72.2453403
  36.0445976 100.5679989  72.7638531  35.7518125 101.1678410  71.4053822
   7.1046746  81.1224747  43.4365225   7.4116516  82.0264339  43.3668470
   6.3501132  81.1703396  44.0235281  90.1275826  54.8144960  59.3777418
  90.0670719  53.9098263  59.0709162  90.7180119  54.7732878  60.1300192
   5.7626021  86.9116402  39.2333722   5.1305050  86.2421131  39.4949317
   5.8337480  86.8158722  38.2836366   5.8333689  66.7423487  31.8847346
   5.6119341  67.6187706  31.5699697   5.2013135  66.1665249  31.4544249
  15.0746691  54.7000074  32.8479052  14.9713302  53.7561083  32.9687667
  15.0808442  54.8206377  31.8983555  92.3922920  66.5131664  28.6065984
  93.1394672  66.4037895  28.0183887  92.2685242  67.4606562  28.6629605
 107.6880455  92.0742130  46.2800694 108.4265041  92.5586510  45.9109926
 108.0923653  91.4087200  46.8367243   0.6292707  93.5269451  63.6361074
   0.6851560  93.5971737  62.6831245   0.7392675  94.4247437  63.9492989
 110.5322647  71.2895107  61.0378647 110.2168274  72.1798801  61.1926937
 111.2204552  71.3901854  60.3802299  37.2241139  81.5835476  43.0746746
  36.9621634  82.2007561  43.7578011  36.4544821  81.0295010  42.9445362
 105.0398636  79.0000677  44.1930962 105.5405235  79.7742701  43.9358377
 105.2486229  78.3469915  43.5251570   7.0888382  60.7702160  79.0871477
   6.3509262  60.1627445  79.0352201   7.5166756  60.7008696  78.2336950
  29.5151091  87.9955101  26.6137648  29.3494415  88.5082626  25.8226442
  30.3790355  87.6085663  26.4718533 107.3613644  77.1882439  13.4425521
 107.9218769  77.7120733  12.8701389 106.7830753  77.8262234  13.8606381
  18.7363100  83.6423779  46.7889929  18.4572887  82.9645824  47.4045992
  18.8530266  84.4236088  47.3296309  22.5577545  70.3842735   9.0247834
  22.1343279  70.5159235   8.1764847  22.0804000  69.6548367   9.4201130
 110.8613873  96.1921310  21.3643503 109.9318504  96.4055729  21.4458203
 110.8900452  95.2355480  21.3834405   0.0331190  66.4855051  32.9178357
   0.7947531  66.6160631  33.4827232   0.3949193  66.4501190  32.0323515
 110.7840919  82.7682018  43.7006378 110.2933598  83.5886574  43.7482977
 111.3044262  82.8464413  42.9010344  64.8721170  23.3642817  47.1348238
  64.1817999  23.4220219  46.4742470  64.5891380  22.6582217  47.7158880
  64.4785881  74.7801065  51.1953592  63.9802551  75.2005291  50.4945469
  63.9929771  74.9892616  51.9932747  12.5421298  74.5931625  69.1788340
  11.9562697  74.7813082  69.9120474  11.9643927  74.2699862  68.4874535
  16.0468912  90.9305668  37.6670527  16.6596067  91.6541576  37.5358033
  16.0286498  90.8011723  38.6152935 105.5348682  54.8621225  28.2029057
 106.4666462  54.6474791  28.2470369 105.3248882  54.8268270  27.2696900
 111.5638733  61.7207956  59.8909187 111.4255238  60.8993816  59.4193554
 112.1008587  62.2487020  59.2999983  64.6816206  11.5440857  65.4293060
  64.2958736  12.0838213  66.1193132  64.9993134  12.1737409  64.7821283
  41.6833019  80.4517555  52.4958134  41.4661741  80.9868050  51.7323923
  42.5864172  80.1732159  52.3440409  97.5874901  92.8785324  65.7227564
  96.9654846  93.5364914  66.0332870  97.7151012  93.0874634  64.7973919
   9.5257837  76.3945246  36.3882422   9.8408061  77.2549009  36.1112213
   8.6119962  76.3711834  36.1042023  15.6530774  74.7690535  55.7203674
  15.6378007  74.2975855  56.5532637  15.8281016  75.6782961  55.9630013
  23.4608006  85.3545952  20.9251428  22.7093959  85.7624340  20.4946852
  23.0792451  84.8406410  21.6368294  94.7408199  56.1444235  55.1673698
  95.0882149  56.9762611  54.8455191  93.8544941  56.3531542  55.4624891
 101.5381908  34.4550657  59.1726446 102.0195675  34.6949363  58.3808279
 102.1668434  34.5828652  59.8830700 104.4446373  72.3668575  58.6212158
 104.9434185  72.4842167  57.8127146 104.3626785  73.2495260  58.9823389
 107.5845814  92.7541256  28.7645674 106.7652512  93.1797695  29.0170741
 107.9720879  92.4702549  29.5925117  30.3730631  53.1125546  33.4226322
  31.1189389  52.5949669  33.1193089  30.3084540  53.8310766  32.7935147
  17.1296239  94.6655369  25.5160260  17.3203218  93.8569164  25.9914231
  17.5334311  94.5394802  24.6573758  21.3658929   0.6962705  36.5532017
  22.2319913   0.3028814  36.6597247  20.8064508   0.2117408  37.1602321
  26.2343431  86.4817238  56.3922310  25.4298472  86.9554234  56.6034794
  26.8858480  86.8337345  56.9987488  25.3347015  93.6057758  69.8807240
  26.2494850  93.7806988  70.1016474  24.8889804  93.5579586  70.7264662
  98.6428547  68.5505772  45.6250095  99.3593025  69.0215445  46.0505867
  98.7384129  68.7583160  44.6955252  10.4892802  65.1681852  60.0141191
   9.8088330  64.9869585  59.3657494  10.7788908  64.3036079  60.3054333
   4.6599913  86.0675144  44.4568872   5.0392979  86.2477970  45.3170395
   4.8664233  85.1474667  44.2921638  80.0490952  62.0738125  62.8023815
  79.5442486  62.4435663  63.5267067  79.8912096  61.1313057  62.8569460
  41.8066216  67.9064894  61.0130739  42.2698545  68.0913305  61.8300676
  40.8844900  68.0565929  61.2213421   5.8639306  65.0035000  89.1945839
   6.6673172  64.5289993  88.9809132   5.7515079  64.8723698  90.1360703
   7.6663840 100.8077431  46.2083578   7.9515618 100.2108097  46.9001532
   7.2111392 100.2466869  45.5805016 100.7293606  85.8787727  12.2101319
 101.6810703  85.7776451  12.2261536 100.4122829  85.2670956  12.8746152
 101.0988331  83.3201122  41.3611650 101.3160038  82.8732967  40.5429792
 100.3565598  82.8285599  41.7127895 108.5446644  94.8448181  67.0585632
 109.3511486  95.2202034  66.7051554 108.6707878  93.8984585  66.9898844
  93.1107712  87.8381443  42.3262548  93.3715153  88.2789421  43.1349230
  93.0130577  86.9190788  42.5752354  54.1500187  82.8479671  56.9453907
  53.6060953  83.5080242  56.5156221  54.9336958  82.7905273  56.3987780
 104.3338203  59.6856928  46.5374279 104.8234081  59.9103069  45.7461739
 104.5804787  58.7795353  46.7225599  93.2770824  56.5715313  46.7419338
  93.0320930  57.4280119  46.3917160  92.9319668  56.5702105  47.6347494
 112.1910954  60.0155783  45.1595306 112.2379494  60.9600973  45.0114632
 111.3440704  59.8815203  45.5847406 107.6481056  58.7593985  63.1072855
 106.7313099  58.9764833  62.9381657 108.0830288  58.8827801  62.2635698
  22.1973157  82.4991417  37.4294591  21.5357780  81.9082355  37.7892208
  21.7190886  83.0397224  36.8007255 108.3151054  77.5726080  35.5948830
 107.9092312  78.3763313  35.9197307 107.6693439  77.2051907  34.9913645
  54.1805267  93.5629177  65.0136709  55.1045036  93.7930679  64.9160624
  54.1906118  92.6557827  65.3190136  27.4712992  83.3584023   9.8833108
  28.3921504  83.6133003   9.8259246  27.0820189  83.9992714  10.4782736
  57.1634054  71.9690990  57.3460770  56.9429445  72.7779245  56.8840885
  57.9716825  72.1743488  57.8159571   3.5367242  91.8968201   1.5608677
   2.8971869  92.2299290   0.9313738   3.2246855  92.2122765   2.4090132
  26.0971332  63.0066586  42.3030090  25.1760626  63.2411671  42.1895933
  26.5313840  63.3588791  41.5260935  78.3993769   2.7854267  27.4907422
  78.1557941   3.6123249  27.0746422  77.8200865   2.1365166  27.0912766
   0.1979458  79.6381330  39.0848422   1.1476859  79.7051907  38.9862061
   0.0482905  79.7237730  40.0263834 109.4373226  83.3145332  16.7697251
 109.6431351  83.4611988  17.6929605 110.2862072  83.3398438  16.3281465
  85.0494576  82.0268345  40.9581661  84.5781994  82.1787167  40.1389694
  84.3727970  82.0639133  41.6341686  50.2639103   1.7041370  66.4679861
  49.9850607   0.8907761  66.8885994  51.2183380   1.6405147  66.4326477
  36.8426657  58.7099028  19.8755598  36.7948389  57.9093885  19.3529487
  37.7793145  58.8489962  20.0154662   9.6310544  97.9801464  34.9495530
  10.1269925  97.3324871  35.4503632  10.1147509  98.0695534  34.1284108
  39.1895103   1.3189076  43.0004978  38.4096050   1.8322870  43.2112646
  38.8812876   0.6591511  42.3792458 103.8127804  96.7447186  79.8070192
 103.5326004  97.6501560  79.6731472 103.1432056  96.3688183  80.3785133
 108.2692719  83.7767220  25.5380940 109.0709686  83.5524845  25.0656104
 107.6399803  83.9966488  24.8511791  89.5646477  65.2649164  48.4454775
  90.2040768  65.6333828  49.0550661  89.0917683  64.6112156  48.9605474
   4.6086651  76.2614489  48.6058474   5.4813027  75.8706045  48.5613823
   4.0191838  75.5647326  48.3171844  19.3281353 100.1341534  20.9299827
  20.1507568  99.7413445  21.2219119  19.5331740 100.5113983  20.0744820
  91.5433693  89.6487522  56.6099501  91.8001366  90.5560875  56.4454746
  92.3651886  89.1991806  56.8067598  29.6756387 104.5158672  58.6535025
  29.9046469 103.8895607  57.9668283  28.7550521 104.3360710  58.8443470
   2.1765085  22.0255256  46.3810730   2.9724422  22.0289564  46.9127798
   2.4790266  22.2277331  45.4957342 107.8230190  74.7836256  69.6351242
 108.0299187  74.4995642  70.5254793 108.4887218  75.4409552  69.4326496
 104.0323830  72.8131247  14.0526557 103.1427097  72.6624918  13.7332404
 104.5332050  73.0391264  13.2688653 108.5022926  41.9205809  78.7953520
 109.2961121  41.5445518  78.4149790 107.7916908  41.3814449  78.4480667
  95.7078838  91.2281322  33.0138111  95.9980965  90.3195286  33.0940509
  96.2900543  91.7177200  33.5948563  29.7246099  74.9472189  54.4757080
  29.7008467  74.7929239  53.5313272  28.9884615  75.5363512  54.6407413
  -0.1587166  67.3002672  45.0451994   0.5923797  66.8667173  44.6400833
  -0.1746031  68.1715679  44.6492004  27.6728559  87.2600746  15.6378281
  27.8866673  86.7538643  16.4215827  28.2147241  86.8752670  14.9489582
  15.4878950  85.2563858  58.7424898  15.8956838  84.9712849  57.9247713
  15.2834272  86.1803722  58.5987425  83.4339142  64.0518093  57.2728300
  83.1872749  64.7687769  57.8570843  83.5594273  64.4695425  56.4207888
  27.9386163  85.1610279  54.3491840  27.5862312  84.3449593  53.9940977
  27.3498631  85.3822231  55.0707626   1.4389500  73.2638645  37.9415441
   0.7225855  73.1780148  38.5705781   1.1040317  73.8669729  37.2779751
  35.9714007   6.0147715  16.3513291  35.3741789   5.4069734  15.9152794
  35.8600974   6.8400025  15.8792734  49.0910673   8.3911020  79.0175962
  48.6410046   7.7649790  79.5847321  49.5062923   7.8502750  78.3457899
  22.9292130  88.5400295   8.5110021  22.3991919  89.0688419   7.9146236
  23.4902954  88.0200195   7.9356718 105.1268864  99.2538261  17.1485543
 105.9059429  99.6299553  16.7388892 104.4588852  99.9339581  17.0623136
  89.2309093  90.1081753  38.2090235  89.9053383  90.5344582  38.7378502
  89.6717644  89.8923016  37.3872733  82.9035950  47.4448013  53.7450027
  82.3303986  46.8013859  54.1617632  83.3957767  47.8316689  54.4691086
  54.5777225  -0.0455801  68.2296944  55.5274630  -0.1080699  68.3312702
  54.4017506   0.8947191  68.1964970  29.6425962  89.3723488  24.3814278
  29.0125442  89.5870209  23.6935472  30.4967308  89.5518017  23.9883876
  24.3238544  23.3401299  50.9056997  24.2046070  22.4871993  50.4879475
  23.7752891  23.9356685  50.3951693  83.3611584  81.8088245  43.1566715
  83.2517624  81.7389297  44.1050291  83.3360958  80.9040165  42.8453493
  22.5596237  78.3924627  69.2980909  23.4560418  78.7279987  69.3069506
  22.0129871  79.1721487  69.2006016  71.1577702  55.7479095  28.6200929
  70.9648895  56.6393614  28.3296704  70.4390955  55.5284023  29.2130160
  65.5145073  91.8492413  62.6589394  65.9413385  91.0464859  62.9583263
  64.5815277  91.6354561  62.6500750  21.4906907  49.2333412  75.7610941
  21.7225242  48.7975502  74.9409866  21.7581534  48.6176300  76.4434338
   0.7925229  31.1501145  43.4286404   0.8810071  30.5968165  44.2046976
  -0.1427582  31.1305499  43.2259130  25.2229071  70.3891325  54.9466610
  24.7932863  70.8814049  55.6461811  26.1533809  70.4191494  55.1692629
  48.2824421  55.7098484  56.4834023  47.5146914  55.7664871  57.0522451
  48.6494017  54.8439789  56.6618586   5.9449774  87.0405006  36.5048385
   6.5042537  86.4888477  35.9579182   5.4647833  87.5864697  35.8822918
   3.7567514  66.9456148  59.8437643   4.3389249  66.5359402  60.4836655
   3.8377506  66.3992453  59.0620041 100.3289032  74.8618793  11.5295386
 100.1365376  75.6325531  12.0636642 101.0221863  75.1492357  10.9353900
  95.6014442  46.2385607  30.7364988  94.8343849  45.7333279  30.4670835
  95.9068775  46.6576433  29.9319410 111.8949986 103.8169861  29.8914361
 111.0035896 104.1214752  30.0615025 112.3496342 104.5864487  29.5487022
  51.9231272  19.1903448  11.9995511  51.3009644  18.6959541  12.5331426
  51.3745260  19.7245800  11.4252150  19.0187562  77.9104090  44.3749762
  18.4574401  77.3737526  44.9345827  18.4086001  78.4298754  43.8514376
  19.3361306  87.3428631  51.2042189  18.7432468  87.8977871  50.6974840
  18.7822485  86.6314030  51.5255737   6.1597544  87.4838829  42.1560574
   5.6680584  87.4003124  41.3390589   5.5513805  87.1877098  42.8331041
  14.3221867  24.4429445  79.7083902  15.0919878  24.9402928  79.4321966
  13.5870874  25.0381327  79.5613766   3.3273539  99.6632004  62.6439190
   2.7196461  99.7041416  63.3823299   2.7667537  99.5310593  61.8793964
  99.3207264  18.7097323  87.8855515  99.1634560  18.8550210  88.8184929
  98.6188793  19.1903734  87.4466515 105.1826572  86.1781216  54.2576075
 104.7992039  85.9932041  55.1149273 105.9939194  86.6465950  54.4540977
   4.6242094  97.3307705  47.8785944   4.5660865  97.8020000  48.7097359
   3.8685885  97.6363087  47.3766804  20.6835175  95.9088421  60.0562716
  20.4404783  96.8304539  59.9679470  20.0106692  95.5373192  60.6267738
  12.2601449  39.8228812  64.1595936  13.0981565  39.8822474  64.6183348
  12.4959469  39.6101594  63.2566118  32.7429247  66.5187025  31.3703179
  33.4420490  67.1607590  31.2469316  33.1458402  65.8226490  31.8893528
  82.0214748  95.2905369  78.7952328  82.8527355  94.9243355  79.0971184
  81.3584423  94.8491001  79.3260384  64.5787859   4.4461539  27.6912975
  64.1071272   4.9095204  28.3834410  64.1458082   4.7189525  26.8823838
   2.7317187  52.9281664  86.0730553   3.5167906  52.5807333  85.6497478
   2.2400846  53.3416796  85.3634453  16.7043400  87.5695038   7.2049451
  15.9097862  87.0714569   7.3969495  16.8367290  88.1169796   7.9788804
  20.8294511  76.3315535  30.2388716  21.3519263  75.8872175  30.9065652
  20.8061790  75.7174158  29.5050263   5.5079085  41.0245609  54.3475580
   6.4220357  41.2424803  54.1655827   5.2192819  40.5383158  53.5752296
 103.1273174  63.2374620  55.1309252 103.4933281  64.0624714  55.4497051
 102.9477596  63.3972406  54.2043924 100.2037621  67.0242786  30.5700064
 100.9005642  66.3768959  30.6776333 100.4676247  67.7553129  31.1287522
  63.0777121  80.4358101  19.9633169  63.0722713  80.8717537  19.1111708
  62.6463604  79.5960188  19.8054826   9.5876527  99.1053200  57.3379278
   9.6153527 100.0546265  57.4573803   8.6969513  98.8584900  57.5868416
 103.4357262  59.1878796  66.6453695 103.3807373  59.2926884  67.5952244
 104.0155602  59.8938560  66.3596773  23.5493040  71.4205551  56.8579245
  22.8386521  72.0127439  56.6119194  23.3848906  71.2187624  57.7790546
  87.0076752  26.7655253  40.8508635  87.8923893  26.5631199  40.5466366
  86.6557693  27.3582578  40.1867342  80.9285641  37.1775198  89.5821571
  81.6509819  36.9930363  88.9818954  81.3212204  37.7119637  90.2723980
  22.3233438  80.1458073  41.0975409  21.4942813  79.7788334  41.4044905
  22.6831198  79.4736290  40.5187702  28.7525439  82.6359653  50.9848118
  29.1654849  82.1504593  50.2706718  29.1442871  82.2729397  51.7791557
   5.5600750  81.2413311  32.2349238   5.7632375  80.5235100  32.8346586
   5.4325008  82.0002174  32.8041840  13.7229860 103.8192177  38.3082676
  12.8465700 103.4599304  38.4462476  13.8086927 103.8829517  37.3570466
  49.7374773  87.7077198  72.9236794  49.3390322  88.1576443  72.1786642
  49.0027189  87.2873116  73.3704710 112.1249390  46.2005281  59.3176365
 111.2079048  46.0719395  59.5599937 112.1611786  47.0971680  58.9845371
  10.6369114  80.4549694  72.8599787  10.2377188  81.2502956  73.2125902
  11.3877523  80.2906418  73.4304714  10.4500103  81.0175991  21.6734409
  10.8989716  80.2114201  21.9278979  10.0375843  81.3268661  22.4799705
  46.1924791  83.5622406  21.8438458  45.3523302  83.5186291  21.3872433
  45.9628868  83.5220146  22.7722335   5.2622902  55.0971317  76.5257311
   5.5341780  55.6554604  77.2541380   5.5030525  54.2120838  76.7995119
  18.7350678  18.5283041  48.2873106  18.1796896  17.7618778  48.1445694
  18.1933916  19.2701125  48.0179787  41.0846758   3.3851898  32.1539617
  40.8552408   2.8768179  32.9318762  40.5200195   4.1569048  32.1970344
  11.4581025  97.0279217  72.8528643  10.8972597  97.0387077  73.6284733
  11.8210745  96.1424541  72.8320646  40.7789230  67.1259737  27.4266005
  39.8226118  67.0893478  27.4454331  40.9907341  67.3955870  26.5329123
  43.8168335   6.1059892  41.2723303  42.9215431   6.0641330  41.6084003
  44.0553951   5.1929706  41.1119699   6.5149492  41.9887066  88.0500412
   6.0583860  41.7051411  88.8421059   6.0166830  42.7468586  87.7448082
  36.6571665  83.2001591  28.7070537  37.4300218  83.5575294  29.1443300
  36.1479521  83.9700127  28.4535861  95.1535225  75.8538294  84.0777493
  95.2438068  76.3881397  84.8667908  94.2883015  75.4523611  84.1580486
  89.7494793  77.6291609  62.9137135  90.2102757  77.0015907  62.3568869
  90.3352451  78.3848763  62.9584599  64.1722155  10.5729294  55.2464628
  64.6780920  11.2488389  55.6975412  63.6216211  10.1900303  55.9294462
   2.3434140  67.1565247  70.7738352   1.7354535  67.8954172  70.7483816
   3.2110029  67.5586176  70.7309294  96.4122009  32.9477239  80.2261829
  96.6824627  33.3585668  81.0474014  97.2299671  32.8033948  79.7500944
  32.7509689  84.5914650  54.8616648  33.4895110  85.1921463  54.7618055
  31.9770169  85.1516438  54.8030806   1.7922203 105.0197601  81.7038631
   1.9017076 105.6571579  80.9981823   0.8441567 104.9310303  81.8015003
  37.8855038  73.4375572  55.0247908  38.3244848  72.7967501  54.4654179
  38.2427263  74.2814445  54.7482443  48.6986160  62.6074934  47.6103449
  49.4852209  62.0684338  47.6934052  48.5767174  62.7094650  46.6664314
  10.8019233  76.9401026  59.7639561  11.0205543  77.3083305  60.6200171
   9.8494017  77.0155191  59.7069740   4.8154664  75.1722670  60.2355719
   4.1297373  75.5168104  59.6634722   4.6416828  75.5742645  61.0867071
  16.4240408  80.3213596  31.0178423  16.9552374  80.0597954  31.7699337
  16.0713100  79.4996500  30.6763625  33.9281344  88.5596943  51.7530966
  33.2532358  88.6666012  52.4234056  33.5147333  88.0174255  51.0813284
  62.4684811  10.5724847  51.4385223  62.9829216  10.1276231  52.1120787
  61.8887377  11.1569309  51.9269466  31.3755894  89.6148682  35.2999735
  31.8368053  90.4510593  35.2343559  30.5088472  89.7900105  34.9334860
  28.9048624 103.2844067  46.7255640  28.1091619 102.7782059  46.8894196
  28.7127185 103.7820816  45.9308100  57.0920897   2.0407744  56.0302210
  56.8247175   2.3364562  55.1599789  57.5110102   2.8056377  56.4248371
  33.1541991  83.4710789  21.0602808  33.8744497  84.0976048  21.1305737
  32.4424791  83.8669205  21.5632749  32.9597735   9.8788410  48.0146408
  33.3173013   9.2501652  48.6416769  32.1296716   9.4927329  47.7352142
  74.4325018  30.2568483  44.2318296  74.8284483  29.4341278  43.9444399
  74.3925428  30.7929325  43.4398365  17.6317263  94.5750809  33.7640047
  17.5670469  95.3392982  34.3367338  17.7911747  94.9406910  32.8938675
   5.8985460  93.4665775  18.3834124   5.6128770  93.3977699  17.4724293
   5.1273155  93.2229042  18.8953257  70.4234266   1.1397365  29.5277643
  69.9181747   1.9138348  29.7762084  70.0014067   0.8246451  28.7284851
  61.3469887  18.3510959  29.0976334  61.6531324  19.1595697  28.6866856
  61.8237638  17.6562345  28.6436677  23.8039541 103.5318470  76.3215780
  23.4741163 104.4181633  76.1736536  24.1479397 103.2592201  75.4709435
  57.3545742  76.2356138  19.9424303  58.0653191  76.2798309  20.5820513
  57.7208805  76.6278505  19.1498399  75.6456041   6.9026709   8.4798706
  75.5585575   7.8232610   8.2325494  75.1311350   6.8207216   9.2828870
  26.0306406  19.5261383  26.5479255  26.0271764  19.7378433  25.6144381
  26.0280538  20.3769541  26.9864869 102.3107433  78.4173059  61.6721725
 102.1428394  79.2501783  61.2313080 103.2120323  78.1984568  61.4354801
  16.7461681  74.0635109  72.3466015  17.1686697  74.7964239  72.7944469
  16.1738825  73.6759663  73.0088186  91.5398312  58.0386496  75.9616184
  91.6856289  57.8980398  76.8971395  92.4139404  57.9958487  75.5738926
  63.4615993  26.3326216  48.6923552  63.1689453  25.4306030  48.8225317
  63.4872913  26.4412522  47.7416849  12.7682507 100.4910946  43.9575720
  12.2067606  99.8398876  43.5369873  12.1582985 101.1190510  44.3446779
   2.2672275  75.9748936  33.9589429   3.1700116  75.8097792  34.2308784
   2.3274449  76.1442041  33.0187631  13.6564100  94.3456078  46.8874502
  13.1543934  94.3441200  46.0724640  13.2879388  93.6239624  47.3970461
  22.6871634  81.2221909  27.6603079  23.3140683  81.1241150  28.3769679
  23.1957865  81.6109371  26.9486833  48.1627655  95.8959198  30.4432774
  47.3410463  96.2839890  30.7439590  47.9012585  95.2856731  29.7537470
  27.6875854  71.3212776  55.5040169  28.4933567  71.4397240  55.0010872
  27.3666167  72.2103310  55.6550026  93.4958649  92.6968193  52.4166536
  92.7734375  92.1962929  52.7958679  94.2809486  92.2065449  52.6606035
  24.3668365   5.6991464  36.3195634  24.7347975   5.5461770  37.1898723
  24.4185758   4.8480183  35.8846641 108.1656170  81.8894100  77.3923874
 108.1253433  81.0881710  76.8702507 107.7112389  81.6685677  78.2054043
  61.3212824  36.6246319   1.7390513  61.1785793  36.4772820   0.8040892
  60.4457521  36.7798424   2.0934328  73.0982637  11.8034434  76.0737991
  72.5650549  11.5005839  76.8087769  72.9015493  12.7376139  76.0040951
   3.5333055 100.6796455  34.5803809   2.6958621 100.2174187  34.6159530
   4.1916728  99.9861717  34.6236777   8.8045609 101.4490223  60.9424114
   8.8344330 102.2412682  61.4787817   9.5728141 101.5146828  60.3752184
  18.0886114  72.2569799  68.6423302  17.9169524  71.8074226  67.8148890
  17.5801420  71.7689562  69.2900372  37.3774910   6.0548472  61.7652893
  37.2506166   5.9025741  62.7017450  38.2449365   6.4547116  61.7030144
  46.0299110  26.7614913  23.4438920  46.6092730  26.2541437  22.8754091
  45.2895069  26.9951820  22.8840446  73.4268665  87.8815937  49.6356440
  73.1566525  87.7430630  50.5434036  73.7171459  87.0194244  49.3379259
  91.6694164   4.3146914  41.3834715  91.5742302   3.3942404  41.6282988
  91.6373444   4.7881895  42.2147369  74.8233461  20.4924536   6.5483344
  73.9212036  20.2305102   6.3646257  74.7462416  21.1452484   7.2441393
  34.4586730 105.4254436  26.5850949  34.6794176 105.6070518  27.4986148
  33.6856747 104.8629189  26.6327524  14.8488450  94.5088959  78.8100052
  14.4592941  95.3686905  78.6511612  15.7916057  94.6732140  78.8307381
  79.8368073  58.3737183  91.8081760  80.4310036  57.7996922  91.3247967
  79.8924732  59.2139673  91.3530731  24.6115232  73.6403322  53.1567097
  23.9309812  73.0298519  52.8731394  25.3812099  73.3967352  52.6424360
  34.1513157  74.2532730  50.4542637  34.8965406  73.6835527  50.2637529
  34.5363760  75.0137377  50.8897495  11.0034037  85.3072834  57.8625917
  10.9061146  85.3890800  58.8113165  10.3129292  84.6974087  57.6027155
  96.3934898 104.9684620  24.6493936  96.3074684 104.0751266  24.3165374
  96.8330288 104.8681545  25.4937720  73.0898125   0.1838464  29.3187785
  72.1786959   0.4048413  29.5118093  73.4600313  -0.0665599  30.1652193
  40.3482533  13.1304193  30.7894182  41.1939812  13.5346591  30.9832382
  39.7386432  13.8661623  30.7320738  44.7659588  77.3484278  47.6048756
  45.0744915  77.3528576  46.6987705  45.4445648  76.8755484  48.0866528
   2.0903073  92.8341484  29.2725778   2.0325713  92.8221035  28.3171964
   1.3872209  93.4225845  29.5476151   5.2203155  87.4267387   7.8885078
   4.5438069  87.6380730   7.2451508   5.5273652  88.2776260   8.2014805
  68.9600086   4.5905095  51.2438297  68.6367369   3.7550262  50.9066439
  69.8178387   4.3833709  51.6145706  25.7056236  59.3483210  21.6887259
  25.3015423  60.0099087  22.2501993  26.1823654  58.7797594  22.2934461
  49.8707914   5.8964270  51.2227488  49.3951941   5.0695300  51.1435032
  50.3542423   5.9744376  50.4003048   9.1340530  67.8914022  15.4792929
   9.3178093  67.5515938  14.6035111   9.6010220  68.7262011  15.5151439
 109.9561596 100.7053757  36.7719460 109.7228622 101.6335201  36.7532086
 109.2081356 100.2622604  36.3715029  15.0355613  64.3733883   4.3213460
  15.0233066  65.3290844   4.3735296  15.4495358  64.0942144   5.1379979
  67.6635599  22.6118851  10.2661479  67.4541092  22.6928926  11.1966324
  68.0900669  23.4394431  10.0437188  20.0887489  82.3201466  58.5657024
  20.1488400  83.1009674  59.1161060  20.5951238  81.6569519  59.0347195
  48.7713242  78.5947037  41.8924189  48.8044214  77.7507257  42.3427868
  47.8809977  78.9120674  42.0435238  13.9410424  86.7189693  43.0785275
  14.8825872  86.5767670  42.9810381  13.8648820  87.6278877  43.3688498
  38.0007434  85.8730316  62.4282598  38.7199712  86.2941933  61.9575500
  37.8509283  86.4345741  63.1888247  48.1774807   5.8546937  44.7195053
  48.2673311   4.9226677  44.5207930  47.3171234   6.0915625  44.3732262
  43.0134678  86.5910053  49.0989113  42.1610355  86.9731426  49.3076372
  43.6137867  87.3364735  49.0874290  25.1744843  83.6160564  47.3731947
  25.3687906  84.1416264  48.1492472  25.2938747  82.7109528  47.6608610
  46.0820627  24.3355274  15.3013659  46.3158417  25.0112391  14.6649754
  46.4760685  23.5345197  14.9558568  96.8144989  44.9418831  90.4806805
  95.8663845  45.0602436  90.5381393  96.9744110  44.0893555  90.8854580
  53.8644934  11.8116355  19.6313643  54.0091276  10.8657098  19.6082139
  53.1561518  11.9302046  20.2641582   2.4845099  80.9317589  57.4998093
   3.3157700  80.4790115  57.3574638   2.3554878  81.4508343  56.7059946
  56.0135651   4.2075288  17.9956806  56.8541527   4.6590835  17.9198909
  56.2041569   3.4341148  18.5264707  23.3468771 105.6602001  46.4911032
  23.7177706 105.5386162  45.6170940  22.3997855 105.6297493  46.3557434
  54.9498272  24.3739295  50.8155632  55.2070570  25.0787497  50.2211761
  55.6673813  23.7425804  50.7631540  41.1483526  18.9608598  80.2361584
  41.3689613  18.5412359  79.4046021  40.7380533  18.2674360  80.7529259
  17.9924893  86.8683529  25.4797077  17.9208028  85.9831238  25.8367252
  18.9284134  87.0658779  25.5152392  53.6010075  77.6055145  49.4249487
  52.6753569  77.7847052  49.5901775  53.8921309  77.1188974  50.1961088
  14.8275805  91.0095215  50.9777832  15.3981209  91.2092590  51.7199564
  14.0487587  91.5467072  51.1230230  38.3844757  86.4521027  32.9208469
  37.5144672  86.7703533  32.6799393  38.7336159  87.1269035  33.5030675
   5.1269782  77.5402308  57.8324986   4.7338402  76.7003155  57.5954008
   6.0419905  77.3317099  58.0209208  84.1497803  95.5934048  33.3895159
  84.6183586  94.8515511  33.0069995  83.3243370  95.6302357  32.9062748
  70.4396200  81.4366722  15.3484309  70.2175093  82.2523117  14.8993969
  71.3124228  81.5920067  15.7094288   6.1230499  74.9531841  45.2939320
   5.1906675  75.0300932  45.4963636   6.5384865  75.6415796  45.8133125
 102.6961994  90.5277252  17.3132610 103.1638145  91.1409473  16.7462182
 102.2642422  91.0832596  17.9621255  19.9821293  94.7089005  26.0503983
  20.3214860  94.6310043  25.1587701  19.9033916  95.6518078  26.1951828
  29.8481941  84.6082687  26.7046428  29.8395491  85.1611328  27.4859834
  29.1749406  83.9484215  26.8706751  54.1643238  42.2146034  30.7175517
  53.9223289  41.9107914  29.8426986  53.5156965  42.8871202  30.9254789
  30.0110030  78.0547285  40.8961630  30.9544349  77.8937817  40.9124327
  29.9152517  78.9506006  41.2193823  21.9945908  63.9458895  71.0283804
  21.9867039  63.0844975  70.6110477  21.0767317  64.2174196  71.0346270
  17.7507591  12.8938115  19.4257247  17.2594106  12.4451756  20.1138616
  17.0801651  13.3174205  18.8899159  37.5061226  95.0570869  63.5249043
  38.2643247  94.5092010  63.3219624  37.8694439  95.7995224  64.0076160
  53.7408590  59.9962473  13.5071671  53.6835384  59.6236277  12.6273370
  54.6769905  59.9958801  13.7069082  29.2377996 104.8284245  34.6995401
  29.6765184 104.1057682  34.2506218  29.9412775 105.4430389  34.9083376
  39.6681452   5.3948200  57.5395775  39.8040271   5.8916831  56.7327929
  40.2193880   5.8341515  58.1871510  30.6792355  48.3966398  21.3320947
  29.7671270  48.1461763  21.4789271  31.1884522  47.7105427  21.7636061
  64.3493652   7.8401619  42.5856352  64.1360998   8.6156332  43.1046677
  63.6561155   7.2140592  42.7945185   5.7803220  68.5540581  57.4113607
   6.1108929  68.1973791  56.5868998   6.2922776  69.3508720  57.5499916
  36.7898846  14.2724431  12.8694439  37.1366310  14.1800964  13.7568390
  36.0603452  13.6539066  12.8317881  16.6601467  99.0628242  56.7318678
  16.2219179  98.2785320  57.0621252  17.2417343  99.3299007  57.4436617
  29.8591781  64.1112804  61.8343687  30.7132387  64.4424438  62.1121168
  29.8074079  63.2341051  62.2140026 103.8330936  98.8657188  20.1969719
 104.2023563  99.6802139  19.8556876 103.3199692  98.5123825  19.4702709
  18.9403927  84.1359806  21.2389469  18.1194353  84.6281815  21.2402081
  19.6056807  84.7792244  21.4836097  11.1066008  74.4278145  37.5028968
  10.6379557  75.0564861  36.9539165  10.4327226  73.8117647  37.7902985
   1.2588024  67.3365688  50.9783363   0.3715019  67.5139046  50.6661129
   1.2182070  66.4436674  51.3208389  73.6491776  25.1718020  50.6690502
  74.3713284  25.3815579  50.0768185  73.1332207  24.5190525  50.1958275
 101.9996357  34.9602771   1.9450428 102.5602722  35.2634549   1.2309016
 102.2743893  34.0561986   2.0979564  41.2457418  96.6823959  22.6066852
  41.3015652  96.3038826  21.7292786  42.0618153  97.1721554  22.7086186
  37.4115658   3.8419774  51.8526506  37.2419953   4.4265980  52.5913620
  37.3889899   2.9635721  52.2322893  74.0369272   1.5680976  23.5697389
  73.8451481   1.2864222  22.6752496  73.1954765   1.5155996  24.0229821
  10.3490567  67.4225569  41.6168165  11.3049746  67.4613667  41.5860558
  10.0640559  67.9360199  40.8609295  10.6843185  90.5768204  35.7170439
  10.3403270  90.7078457  34.8334527  11.6310596  90.6825733  35.6236148
  25.5511665  71.5998316  27.1608305  26.1430144  71.6369867  26.4094543
  24.6747231  71.6243553  26.7768025  53.6430216   1.7068166  81.7711639
  53.4140778   2.6359624  81.7487144  54.5583487   1.6788816  81.4925480
  28.0989075  77.0918894   9.8666304  27.8803921  77.4632406  10.7213700
  27.5361109  77.5610542   9.2506939  15.7719243 100.1376438  41.6510534
  15.2767313 100.8417892  42.0696211  16.0013354 100.4856110  40.7893610
  16.7004979  65.0910091  26.4374971  16.7350411  65.9741497  26.0699391
  17.1780932  65.1568890  27.2644162  20.1070881  92.2498512  31.3478804
  20.7609892  91.5653515  31.4896703  20.3007722  92.5887680  30.4738903
  35.2025890  93.8873386  73.4353781  35.1425076  93.4099483  74.2628574
  35.9236765  94.5031452  73.5659456  19.3961120  78.4999704  51.9665861
  18.6523008  79.1023922  51.9585466  19.5581353  78.3071280  51.0431194
  20.3320575  82.7239418  28.6214352  19.4683743  82.3182201  28.6967421
  20.9336710  82.0765781  28.9891505  64.0490961  98.2905197  67.2885036
  64.1989708  98.6464596  68.1643343  63.3021212  98.7862587  66.9530964
   9.0322953  92.0282078  22.2578311   8.2130700  91.9571686  21.7678761
   9.5815200  92.6024723  21.7241597  45.7001925   8.8858384  42.0011806
  45.1088524   8.3439821  41.4787483  45.1524496   9.2234141  42.7098799
  24.2540169  94.9957943  18.4853244  24.6942568  94.4077969  19.0990639
  24.1984940  95.8302212  18.9510345  26.5399361  87.6591969  37.1805120
  27.2091770  87.0192337  36.9380236  26.4834094  87.5970364  38.1340170
  48.3097124  69.3896961  19.4700778  48.0382252  69.2261744  20.3732872
  48.1273937  70.3188181  19.3296576 110.8710289  81.3327789  58.3651829
 111.0912037  81.8539810  59.1372633 110.0298595  81.6828728  58.0717802
  56.9331837  12.1486092  67.1476316  56.2741613  11.8379843  66.5267944
  57.4437237  11.3687027  67.3651791  35.3771377  10.7365668  17.1498513
  34.4683146  10.4516363  17.0545292  35.3613806  11.6667747  16.9246912
  37.4971700  26.9369102  73.0842447  37.7659631  27.3855877  73.8859129
  36.6220427  27.2784352  72.9005432  86.5500259  80.9925652  52.3383522
  85.7551289  80.5217743  52.5888109  87.1080971  80.3250313  51.9393730
 112.2109318  91.5477848  17.5126648 111.5011215  90.9591198  17.7693403
 112.1756268  91.5627766  16.5562332  21.3834810  70.3696251  64.4945526
  22.3056531  70.6261158  64.5010805  21.2974191  69.8047543  63.7266016
  56.6683340  15.9745216  41.9415236  57.3924875  16.4111531  42.3900604
  56.5649128  16.4610779  41.1237240  54.7621393  56.5985107  62.2733784
  54.3007231  57.3407364  61.8829679  54.5433092  56.6431713  63.2041550
  91.2558079  59.1372681  39.9000144  91.0183048  58.3986282  39.3394446
  92.1977711  59.2448187  39.7681808  47.8743744  21.7491364  53.1180334
  48.5600471  22.4157476  53.0765533  47.3001194  22.0399737  53.8264656
  76.2176847   5.1271021  59.1866589  76.2069321   4.2574799  58.7868214
  75.8269453   4.9981919  60.0509167  20.3328323  87.0249176  58.1727552
  19.5943081  86.7203331  57.6454639  21.0984898  86.8861961  57.6153040
  37.6246834   5.9848750  64.4498158  38.1280136   5.1819140  64.3151140
  37.7759242   6.2112558  65.3674793  50.7453299 103.1607246  57.3582315
  50.9925461 102.2744656  57.0943022  49.8784065 103.2919407  56.9742346
  28.6992979  67.6556540  53.4336758  29.3928981  67.3257494  52.8624344
  28.2077885  66.8749952  53.6890697  49.7206974  93.4088993  45.7389688
  50.3253365  94.0719891  45.4058790  49.7510290  93.5132122  46.6899824
  13.6070430  85.9394836  21.1063147  13.7456584  86.8707085  20.9335423
  12.7208340  85.7662868  20.7887244  54.7194767  73.7555027  48.3062458
  55.2217722  73.7240839  49.1204596  55.0802660  74.5039511  47.8309774
  86.1112976 104.7206688  46.7788124  85.8276367 103.8919830  47.1648741
  86.0578537 105.3504944  47.4976254  42.8325510  98.7155247  44.4219828
  42.3809147  97.8730011  44.4711256  43.0862617  98.9043331  45.3254271
  45.3399277  13.2191849  61.4693451  45.8712149  13.8738227  61.0161161
  44.5327234  13.1695735  60.9572983  63.8407183   8.2579279  50.0778675
  63.2179832   8.7675339  50.5962658  64.6786737   8.7028235  50.2048779
  33.1004660 105.5591947  15.9229541  32.8467696 106.4595533  16.1259925
  33.7470476 105.6447430  15.2223480  74.0145397   1.6279946  65.2692461
  74.5169783   1.5681764  66.0817766  73.8256598   0.7188211  65.0369549
  35.4536843  93.2637405  11.8259847  35.4594064  92.5679684  11.1686337
  34.8846841  92.9322433  12.5206649  57.7961540   2.4159992  32.2028613
  57.0223093   2.7185151  31.7275906  58.3854437   3.1702936  32.2058678
  14.0440595  91.5827751  42.2500134  14.8985004  91.4412403  41.8424177
  13.4967279  90.8744049  41.9110870  46.6838980  93.8941097  78.9731836
  46.8902969  93.0495834  79.3736935  46.3213634  94.4163418  79.6887779
  50.0857067  88.1030941  39.5498705  49.3021107  87.5650692  39.6626997
  50.8002949  87.4714279  39.4686580  15.3644085  71.0766125  67.2644472
  15.1290119  70.9878397  68.1879902  14.9299216  71.8816900  66.9828463
  13.0245137  46.6292620  34.3282938  13.8994348  47.0126009  34.2667031
  12.5111496  47.2798347  34.8072958 101.7049694  81.1671066  35.1167607
 102.2472191  80.9955215  34.3468523 101.6516113  80.3230572  35.5650616
  11.2185812  84.2090702  48.9169359  10.6309342  84.7560692  48.3956909
  12.0455003  84.2189980  48.4349203 112.4955778  72.2789478  26.8484998
 111.7416749  71.7539263  26.5797734 113.1090225  71.6447830  27.2196436
  81.2897682  72.1755648  73.8778543  81.5978718  71.4264917  73.3677626
  81.0664845  72.8362513  73.2222128  99.3959618  93.6678219  60.7683182
  98.8100147  94.4126701  60.9028625 100.2715588  94.0536213  60.7417822
 104.2286110  74.5132542  41.6749287 103.3791447  74.7279596  42.0603323
 104.4832039  73.6932468  42.0980167  31.7750454  98.5357857  51.8771982
  31.3831806  97.8010845  52.3493004  31.0279298  99.0533352  51.5768814
  11.5720606  82.4110794  59.8895741  10.7200527  82.1615982  60.2474451
  11.6742969  83.3309841  60.1336432  15.3988814  92.9470062  71.5832949
  15.3833699  93.2334423  70.6700897  16.0883307  92.2837448  71.6146040
  18.8914006 105.9718653  46.8676805  19.5977013 106.5381122  46.5566540
  19.3260519 105.1501014  47.0957470  10.6814694  62.8614759  32.1501255
  11.3805723  62.2543049  31.9075727  10.0027072  62.7212620  31.4899325
  25.2258372  94.3044281  48.6300564  25.1171041  93.4969711  48.1276464
  25.2457714  94.9967575  47.9693651  48.3121634  12.2875834  43.2444191
  48.9343596  12.1860111  42.5241518  48.5348463  13.1321692  43.6359787
  57.0616627   7.5487715  44.7742701  57.6111031   8.3238602  44.6576977
  56.1712313   7.8595865  44.6107006  40.4755354  61.4794683  51.7853689
  40.2108479  60.8381081  51.1259556  39.9201107  61.2889338  52.5412989
  33.2857633 105.2236176  62.6072788  34.1577005 104.9801254  62.9181957
  32.7985334 105.4366970  63.4031677  65.2512693   6.5009332   0.6261224
  65.8374453   7.0981735   1.0908116  65.3522873   5.6644726   1.0803919
  20.0232148  72.9955339  23.5192728  19.7091758  73.2353735  24.3911028
  20.7735348  73.5704231  23.3684278  79.1247892   0.4946799  51.0092878
  78.1701231   0.4281701  51.0298204  79.2986965   1.2901130  50.5060244
  24.2420530  86.5166759  59.9173498  23.9604163  86.2842751  60.8021641
  25.1652122  86.7506790  60.0135469   0.2636129  90.1864815  46.7550850
  -0.0844496  90.2584362  45.8663225   0.5941183  91.0624027  46.9545126
  42.2971010  84.3013477  35.0215530  42.5048494  84.3858814  35.9521031
  41.3665342  84.5178795  34.9632645   8.6185473  96.6918468  29.3929124
   9.4555366  97.1053696  29.1815257   7.9677427  97.3771858  29.2412591
  21.8667579 102.6093197  55.8579159  22.2801495 102.8462887  55.0277472
  22.4983501 102.0291042  56.2829638  29.1776943  69.1891623  35.5044723
  29.8094130  69.8880386  35.6739807  29.5918894  68.4013224  35.8565831
  69.3645048  99.7531605  35.8917689  69.1559887  99.0218163  36.4730430
  68.5451794  99.9341297  35.4311299  26.4150763  68.4657192  65.0483990
  25.5835700  68.1752253  65.4231548  26.9534039  67.6748276  65.0180149
  82.7894497   3.8551322  19.0430498  83.5972023   4.2618421  18.7294233
  83.0427933   3.4131998  19.8534477   8.9630479  86.5116882  41.7615461
   8.0986804  86.9215012  41.7954874   8.8395238  85.7371807  41.2128115
  35.0195932  96.1432266  49.8421431  34.8264146  95.5745888  49.0967846
  35.8182716  95.7771206  50.2220297  32.3208046  77.8111982  33.9149427
  33.0469775  77.5509501  34.4816661  32.4058890  78.7614775  33.8377619
  47.0489454 101.0320473  80.7980251  47.4497223 100.6578159  80.0134468
  46.9426346 100.2880478  81.3908100  13.0491960  98.8804245  29.4339871
  13.3431244  98.4771347  28.6171699  12.0942390  98.8256741  29.3980598
  81.1864662   6.9904304  11.8992281  80.9195614   6.6072404  11.0636699
  80.3858089   7.0028901  12.4236536  54.8002863  26.6916895  49.1915941
  54.0052271  27.1889615  48.9996719  55.5028725  27.3408794  49.1576576
  80.0664425  11.6389799  58.3851051  79.9049759  10.7350802  58.1146908
  79.3032646  12.1232188  58.0699873  62.6350307   7.0319188  18.9430261
  63.0199575   7.9028475  19.0407324  63.1775475   6.4671564  19.4934368
  95.0431538  26.4543319  27.1802402  94.1466999  26.1213303  27.2215176
  95.1446247  26.9688940  27.9809666  11.4033437  79.5784855  57.6371717
  12.1580148  79.2403078  58.1191874  10.8666360  78.8059950  57.4598742
  43.4671783 101.0852718  48.8753366  42.7978611 100.5614567  48.4350348
  43.2723427 101.9868660  48.6196089  25.2894020  76.4910698  27.7250576
  25.0374198  76.8580484  28.5724449  26.1393476  76.0808611  27.8849006
  26.2788248   8.4421420  89.1004276  26.9123769   7.7305835  89.1927624
  25.6510329   8.1213480  88.4529686  59.0013552   5.1220649   5.9411889
  59.1544771   4.5395213   5.1972616  59.2740440   4.6127018   6.7043561
  42.0406580  97.5341892   2.3792040  42.0218801  98.4910965   2.3933795
  42.5899887  97.2943306   3.1254837  74.0726805  19.6118414  42.8528166
  73.6508846  20.4367518  42.6123047  74.9535370  19.8648620  43.1290531
  64.5413351  17.6649821  23.5195470  63.7698603  17.3024130  23.9549828
  64.2154980  18.4389877  23.0602264  49.0672112  69.7289228  49.9688721
  49.9972439  69.6286726  49.7658396  48.6386490  69.0244579  49.4827700
  78.3559513  23.6471963  21.6656804  77.5499535  23.1573606  21.5024233
  78.4662867  24.1931415  20.8872199  69.0878677  87.8831387  63.9558935
  68.2845116  88.0822754  63.4750652  69.3168736  86.9949436  63.6822319
  27.0473456  91.1344719  40.8227968  26.3780785  90.4745197  41.0038328
  27.8193521  90.8297634  41.2996578  65.5202484  30.1381898  60.1284266
  66.3027477  30.6119180  59.8464537  65.8233023  29.5798326  60.8444071
  28.2677174 102.4548531  40.1211309  28.1086445 102.8403091  40.9827280
  29.0893888 101.9742680  40.2217436  79.9249315  21.3262486  60.9618998
  80.7784271  21.5322208  60.5806446  79.8276615  21.9492602  61.6820574
  18.6744153 103.4130669  20.2028441  17.7693081 103.1066322  20.1471305
  18.9198136 103.2702160  21.1169577  24.3061972  98.7797928  11.6405940
  24.2082191  98.0893898  10.9848595  23.4730721  98.7824535  12.1118975
 101.9646072   5.8377105  59.4841433 101.2668800   5.2013671  59.3276739
 102.7296543   5.3054708  59.7024345  29.5237064 100.7810688  61.1203384
  29.5438790  99.9262714  60.6900597  30.3981447 101.1426258  60.9758902
  43.9778614  95.0516891  58.7838030  43.2069969  95.5905628  58.6060095
  44.5662546  95.6286240  59.2708015  63.3766270   4.1368347  64.2747784
  63.4704781   4.3989003  65.1906109  62.9453135   3.2831696  64.3129253
  72.8268480  20.5355811  66.1451149  73.4930277  21.1617398  65.8616352
  73.2529831  20.0291276  66.8365955  11.6488039 101.2615013   9.2038721
  12.1077025 101.7148495   8.4966785  10.7279253 101.4896679   9.0767592
  71.2457991  27.3231983  39.1663218  70.9279680  28.0745983  38.6657071
  70.5412102  26.6783261  39.1036820  15.2604103  92.6096916  26.1888671
  14.4428730  92.8651810  26.6161728  14.9842179  92.1982002  25.3699493
  24.6920848 101.3811398  57.0140123  24.6427298 102.3264790  57.1559191
  25.5080342 101.2538815  56.5300083  43.1382084   5.8644551  54.3958473
  42.8591490   5.2530462  53.7142754  42.6012707   6.6438711  54.2528772
  10.9711385  97.2841549  45.3059721  11.5510786  97.5655746  44.5983648
  11.3858974  96.4958477  45.6563807  40.9833956  96.2452602  50.0554895
  40.5142355  95.9654236  50.8414936  40.3050470  96.6156197  49.4907713
  78.2045460   0.9416283  29.5987344  78.2665396   1.6448316  28.9522886
  78.4960985   1.3426167  30.4175377 110.7872105   4.9555531  32.9707599
 110.1194191   5.3498250  33.5318565 111.6180229   5.2490813  33.3447027
  62.4086809  24.4132376  31.8785810  61.8187523  23.9482760  32.4719000
  62.1366501  24.1353488  31.0039330  33.3586144 104.4654083  45.9978771
  33.3199549 105.0962830  46.7167139  33.7618756 103.6875534  46.3833046
  28.6146259  95.7143402  78.1673193  29.4111395  95.9274101  78.6535311
  27.9233313  96.2028503  78.6141968  30.3974462  26.8095160  41.2026930
  30.2233911  27.6391578  40.7581377  31.0053086  27.0375943  41.9060564
  54.0846443 102.0738411  62.3175764  54.3876839 101.2087059  62.0419931
  53.4496117 102.3295116  61.6485500  67.9871368   1.8753341  42.8011608
  67.8605413   2.5381684  42.1222973  67.9274940   2.3607752  43.6239719
  57.5636244  15.7080674  14.1628540  57.5944281  14.7603929  14.0317237
  57.0438147  15.8230150  14.9583530  63.1777287  36.7414737  46.9943857
  64.0743017  36.4824986  47.2072697  62.6709032  36.5125299  47.7734566
  42.2983122  87.5476360  42.2851229  41.6902351  87.7815247  41.5838623
  43.0406523  88.1400585  42.1659422  51.5647650  86.7512512  63.6183977
  51.8771553  86.2125683  64.3453550  50.7052135  86.3888168  63.4038305
  48.6408043  91.2392044  74.5194006  48.5535431  92.1326828  74.8515415
  49.4790506  91.2362766  74.0572643 111.9936657  11.7403829  66.0465860
 111.3113403  12.0889902  66.6202831 111.6294956  11.8207061  65.1650190
  38.5162687  97.1613026  22.8324342  39.4432378  96.9407654  22.7411795
  38.4050798  97.9519653  22.3044896  71.5967989  17.7750611  30.3056407
  72.5264406  17.5836277  30.1817584  71.5741444  18.3860445  31.0421300
  55.1648760  92.1148872  13.9328134  55.9176540  91.8048763  14.4362545
  55.4255056  92.0027065  13.0186367 105.8896160  16.0181284  13.7131023
 106.5351772  15.9341240  13.0113709 106.0739422  15.2827156  14.2974174
  37.2872233  68.3910322  41.2023115  38.0932546  68.9017916  41.2775946
  36.7460942  68.8867092  40.5877256  26.0669732  64.4212198  48.5467291
  26.7034006  65.1223612  48.6866903  26.5349603  63.6215067  48.7868929
  17.7109993  85.7588005  53.5543060  17.2462368  85.4437637  52.7790737
  18.2994854  85.0412273  53.7888336  44.2623997   0.9185666  48.9268970
  44.3430376   0.6123718  48.0235863  44.8343611   0.3377488  49.4286346
   5.2919453  98.7602043  60.5194664   5.3447092  99.5890617  60.9953308
   4.4126767  98.4317780  60.7072306  40.1671505  84.7403717  57.8605890
  40.8563089  84.0824604  57.9525185  39.6661043  84.6776199  58.6737585
  69.7978115  53.6669731   9.8949188  69.2082739  54.4078732   9.7544158
  69.4607973  52.9802561   9.3195277  72.8136921   1.7354752   6.5870482
  72.7844620   1.4429520   7.4979860  73.7010765   2.0757802   6.4731264
  96.3001060  12.7944243  56.8384647  95.4503918  13.1685114  56.6054726
  96.8372059  12.9136992  56.0551834   0.5976391  88.4727669  53.7832451
   0.0101405  88.7571335  53.0830956   0.2055386  88.8244057  54.5825195
  41.5670252  79.8844433  24.9455547  42.0947409  79.6181202  25.6984282
  41.6529465  80.8373833  24.9179077  62.9964447  35.0861287  44.8599148
  63.1170177  35.7684898  45.5202770  63.7995577  34.5670605  44.9024630
  18.3482063  15.6089187  25.3201389  18.8015974  16.4450634  25.2127504
  18.0232799  15.6265306  26.2203288 103.9740944  80.1828194  63.2215643
 104.4367886  80.1454830  64.0586758 103.8729191  79.2668438  62.9627657
  14.3159270  89.9694061  45.0961018  14.8676610  90.7309628  45.2745819
  13.4280825  90.2640533  45.2989483  13.8696897  39.4885969  45.0199032
  14.3257189  39.3736315  44.1862059  14.1454899  40.3523540  45.3266478
 103.9815807  59.0026808  37.8549433 104.7074795  58.6380959  38.3612728
 104.3053627  59.0255976  36.9544601 104.2752647  64.7139311  17.3973262
 104.7851276  64.8098707  18.2017350 104.3881035  63.7960720  17.1502697
   4.5701802  36.4679170  33.9081693   5.4255712  36.1813474  33.5881448
   4.2627248  35.7427716  34.4521046  95.0996876  59.7711086  41.0035229
  94.3818665  60.3640413  40.7812929  95.8865547  60.2226639  40.6982851
  71.3684464  60.6511879  37.4272752  70.8946848  60.7269335  36.5989971
  72.2887754  60.5880070  37.1718717   9.7672403  36.1504221  44.1695118
   9.2123038  36.8457150  43.8161755  10.2218270  35.7953262  43.4056425
  27.3262906  49.2904615  12.0192301  28.0905533  49.8640728  12.0749223
  26.7704821  49.5603418  12.7503073  42.6354980  48.1470108  52.6390982
  41.7310905  48.0077505  52.3582458  43.0420256  48.6189318  51.9122839
 101.7118835  65.5739927  36.0180545 101.0562897  66.2173080  36.2874341
 101.3949680  64.7447491  36.3760352   1.6350141  70.5188513  28.0340624
   1.9755386  69.9249983  28.7030983   1.3843043  69.9453020  27.3098946
   8.3445597  21.2151289  23.3664870   8.3959442  21.6308594  22.5058126
   9.2382932  20.9224510  23.5448456  87.4219131   5.2604765  68.2337427
  87.0404053   5.3177124  69.1097593  87.2502899   4.3606538  67.9560804
  88.1193352  15.8145511  56.8785954  87.3906612  15.3406465  56.4777565
  88.7778187  15.1412070  57.0495844   0.3438098  31.2725616  62.2775745
  -0.1102923  31.2698817  63.1201982   1.0314177  30.6136703  62.3739624
  25.8001947  46.8845320  28.9803195  25.4455447  46.6016006  28.1374645
  26.7486429  46.8902922  28.8513088  96.9052410  70.8054161  51.3552189
  96.5064716  70.1208544  50.8180141  96.1923409  71.4205599  51.5272903
   3.6917707  61.6524124  48.8675737   2.8609273  61.2397480  48.6316967
   3.4416845  62.4055529  49.4027996   8.9542788  51.9302368  44.1774416
   9.1911227  52.7737617  43.7919521   9.2644441  51.2822676  43.5448599
  17.7863801  46.2817717  11.0573089  17.3811781  46.4551020  11.9070148
  17.2753358  45.5600405  10.6910181   6.1407059  56.3771915   0.7736450
   6.7353225  56.1158895   0.0705206   6.0936689  55.6105375   1.3448387
   7.9089952  38.0573654  43.0672407   7.7471328  38.6684847  43.7859678
   7.0372552  37.7674603  42.7984381 100.4949284  37.0504045  34.7906876
 100.1159954  37.2057152  33.9255142 101.1951160  37.6987743  34.8653984
 109.1391468  25.1713276  54.7987938 108.4664440  25.8508730  54.8425102
 109.6131897  25.2499723  55.6266403  85.9163761  17.2272098  41.1856174
  85.4078865  16.8515944  41.9043589  85.4651165  16.9338417  40.3940773
  85.7805157  37.4316072  21.1406326  85.4232693  38.1338787  21.6841602
  85.3692818  36.6354680  21.4771962 104.4907951  44.0368509   8.1800801
 104.6005821  43.0885983   8.1094086 103.8748932  44.1533947   8.9034891
   7.4648923  32.7999687  15.0921237   6.7976856  32.5906730  15.7457769
   8.0633527  32.0532179  15.1131523 109.7143459  49.1557074   7.5027597
 109.5381641  49.7779131   8.2084888 109.0524578  48.4732914   7.6143205
  27.1052456  36.4552164  45.1775694  26.5490103  36.1810565  45.9067249
  26.8609166  35.8732510  44.4579458   7.7288574  31.9238567  38.5504627
   7.4900854  32.2213483  37.6725554   8.0345559  31.0256314  38.4240866
  11.0846746  46.4885473  48.3777905  10.7597041  47.2975969  48.7728357
  11.2560225  45.9108496  49.1215181  23.4672260  14.6793985  45.9332657
  23.9252782  15.5191648  45.9680796  24.1303015  14.0345049  46.1795855
 102.7699089  59.0901327  31.8895364 101.9379997  58.6442423  32.0487380
 102.9849529  59.5018959  32.7264571 104.7151470  29.3907452  38.2716918
 104.3426991  29.4905162  39.1477966 105.6554413  29.2918181  38.4210134
  98.2134247  15.9768224  42.9549885  98.7220860  16.6597879  42.5178909
  97.3838425  15.9537518  42.4780321  95.2890301  77.3084116  43.9504576
  95.1252651  77.8022480  44.7539091  94.8963737  77.8402281  43.2581997
   5.1613098  31.2979341  16.4229012   5.5866700  31.4256668  17.2708309
   4.6275124  30.5118799  16.5387130   1.2797243  14.7407591  41.4093304
   0.9722311  15.6249750  41.6089296   1.7825395  14.4819999  42.1816349
   7.5223446  48.8999176  34.0517783   7.7325583  48.9463711  33.1191015
   7.3345083  49.8049974  34.3003297  95.6361771  61.5705347  43.5296679
  94.8768330  61.8308401  44.0510845  95.2867413  60.9483147  42.8917265
   2.5244376  41.6080809  31.5648866   3.3020160  41.7340231  32.1087098
   2.0643811  40.8735895  31.9712162  19.5857406  64.7302437  59.1160870
  20.2224922  65.3799295  58.8182831  18.8104331  64.8906469  58.5781240
 107.2833061  21.6270852  22.6307917 106.4323711  21.2441921  22.8441834
 107.1400166  22.5721765  22.6808381  30.0761604  13.5842073  53.2961178
  30.5469131  14.0634084  53.9780188  29.1739869  13.5410440  53.6130571
  36.6740775  12.9244483  89.5266056  37.5977516  12.9391706  89.7772884
  36.2305498  13.4167290  90.2173901  11.6518414  77.6680708  79.2704535
  11.3373542  77.4327135  80.1433468  12.1095216  76.8860674  78.9618540
 103.7320900  37.3550797  24.5464420 104.6694469  37.2329855  24.3958187
 103.5133743  38.1511903  24.0620828 108.7157536  69.0242100  89.9770927
 109.2850590  69.5287514  89.3961048 108.4021568  69.6620035  90.6182766
  99.9374294   0.7686642  58.9938545 100.2277660  -0.1351939  59.1162443
  99.7596931   0.8382116  58.0558777  94.2738819  73.6550808  17.4733078
  93.8873672  73.6400080  18.3488703  95.2167511  73.5941267  17.6266432
   6.9506854  45.0407553  54.2569208   7.8069538  44.6353912  54.1201162
   6.6782737  44.7384977  55.1233292   1.7554221  40.8677816  21.3157415
   2.2746359  40.1354122  20.9836507   2.0130946  40.9470272  22.2341943
  13.3581233  47.4596405   2.6849991  12.9976714  47.9936457   3.3929148
  12.7332664  47.5604630   1.9669318  35.7234168  44.5034266  48.6885166
  35.5314708  44.0113640  47.8902340  36.5007091  45.0181723  48.4715223
   7.6429063   5.0393879  12.7745759   7.0810747   4.9588010  12.0038080
   7.0481795   5.2984124  13.4784496  92.2503185  54.4959497  53.8596296
  92.4906254  55.1327944  53.1866407  92.4191284  53.6449385  53.4552622
  19.9544537  59.3830347  18.9161825  20.2563047  58.5698986  18.5113013
  20.7453108  59.9151897  19.0032935  14.8851192  62.1284342  24.5134568
  14.7763193  61.6099215  23.7162471  15.1008534  63.0068445  24.2002726
   1.4536792  29.0953016  54.3809080   0.8483784  29.6330309  53.8703299
   2.2402026  29.0390754  53.8382721  21.9583130  67.9286575  48.4086180
  22.6169920  68.5381460  48.0755997  21.3264322  67.8451824  47.6944828
  17.6946020  10.1020777  15.6362259  18.0246437  10.1671624  16.5323663
  17.7120137   9.1649425  15.4420435   7.5051528  42.2235870  31.5220928
   7.4654746  42.5387239  30.6191278   7.8093278  42.9783964  32.0260525
  85.5477715  21.0025787  60.3669500  86.4538860  21.2940216  60.4682255
  85.0223446  21.7615223  60.6202412  57.8088045  20.3128219  38.7185955
  58.2600927  19.5891309  39.1531539  57.1835947  20.6308365  39.3699098
   7.7162135  24.7425985  32.7156663   7.1452969  25.4837584  32.5132656
   8.5674798  24.9904895  32.3549366 101.7307949  34.0346289  28.0935955
 101.4466667  33.5636187  27.3102355 101.5808296  33.4188342  28.8109088
 104.0275002  53.3865023  29.7806001 103.3399868  53.0462980  29.2080402
 104.4907761  54.0288734  29.2430425   6.6857213  58.4834433   4.3078369
   6.5666908  58.0092287   5.1307482   7.6177841  58.3907175   4.1106239
  74.5238066  22.2500896  52.6769161  74.9607086  22.3896503  51.8367529
  73.8711071  21.5732002  52.4979353  94.2471600  63.7590265  29.8704267
  94.4374561  64.6730900  30.0813985  94.3548393  63.7049627  28.9208412
  16.6741776  31.4312363  40.4415703  17.3847187  31.6344500  41.0499048
  16.6437984  32.1825194  39.8492193  19.2916536  21.9496059  17.0474219
  19.8684311  22.3247027  16.3819420  19.4521797  22.4782991  17.8290522
  26.9439888  22.4911022  10.5067480  26.2587690  23.1592298  10.5243671
  26.5307665  21.7142344  10.8835173  14.1299450  66.1434460  49.9339819
  14.0427876  65.2135324  49.7244787  13.9484119  66.1955929  50.8723593
  76.1715126  35.0438905  87.3876762  75.2867126  35.3822136  87.2502232
  76.6901827  35.8153725  87.6157761 109.9499226  49.8268414  49.7332096
 109.1184998  50.0022602  49.2925167 110.4632854  49.3377161  49.0902138
   1.3057566  68.5674191  13.7482262   0.5973124  67.9994154  13.4453857
   1.9850728  68.4802961  13.0795181   1.7034289  26.1025500  66.9268751
   1.9077368  25.4840255  67.6282454   0.7978338  25.9040236  66.6887236
  23.1089187  49.5903015  30.6768370  22.6587677  48.7456846  30.6622696
  23.6539102  49.5848513  29.8899508  13.3068645  89.0538120  22.8447556
  12.4267685  89.4233227  22.7731752  13.5040987  88.7326908  21.9648647
   6.3055485  88.7742138  46.0437584   6.4455605  87.8297615  45.9756374
   6.3957876  88.9629650  46.9778156 109.0934467  65.5994272   0.5103993
 109.1854858  65.2831650   1.4091413 109.9392319  66.0001898   0.3097164
  23.1043100  63.9802599  33.8404727  22.2673559  64.4053030  33.6531854
  23.7066483  64.7035694  34.0143871 109.0416050  12.4543607   4.3586031
 109.1131210  12.6337457   3.4210861 108.1108856  12.5644851   4.5532179
  49.9913454  54.5697260   1.7763828  50.2646828  54.7583437   0.8786399
  50.3521204  53.7021971   1.9593301  34.3623328  44.7418404  17.7790046
  34.2282820  45.6771374  17.6257730  33.6076760  44.4745111  18.3036566
  27.3151779  75.2876997  45.0892305  27.0708966  75.9739113  44.4682026
  27.0785689  75.6442642  45.9454489  31.0283589 101.9301987  65.0650024
  30.9400916 101.6727543  64.1473055  30.9023690 101.1175728  65.5549049
   6.8798393  39.3688440  36.8689728   5.9594643  39.2546272  36.6321278
   7.0760584  40.2764797  36.6367435  35.8070707  48.7062883  36.8851304
  35.7447815  47.9611015  36.2875962  36.5783739  48.5201406  37.4205494
   3.3134776  78.5905218  49.4584513   3.6848512  77.7405977  49.2219305
   2.6038432  78.3811855  50.0657654  14.3511879  94.4388962  42.5537539
  14.1890991  93.4974957  42.6147890  14.4175553  94.6100998  41.6143322
  24.2164063  52.2164345  24.1257238  23.5390425  52.4373770  24.7649384
  24.9035263  52.8669643  24.2703414 100.5667019  63.3284664  37.0653105
 100.1735687  63.6309195  37.8839684  99.8259258  63.0198240  36.5435600
 111.7498875  71.3348627  55.9465694 112.5856590  70.9070730  56.1328888
 111.8205261  71.6107798  55.0327253   7.2103482  52.7818155  20.3095365
   6.4090341  53.2520580  20.0793219   7.8706080  53.4677649  20.4083490
  28.8289165  16.3794923   7.6494062  29.5311522  15.9223676   7.1866596
  29.0017653  17.3074436   7.4904680  39.7432756  36.7347193  55.7139254
  40.5039930  37.2964692  55.5656910  39.0352845  37.1569872  55.2274370
   9.4724166  74.3401337  21.7193794   9.9013638  73.7899256  21.0640144
   9.8660284  74.0739346  22.5503087 110.8048344  82.9957485  19.2028093
 110.4944801  83.2345390  20.0762463 111.7572498  82.9557991  19.2896700
  50.5169058  70.2887487  21.8049335  50.5601215  70.4191256  22.7522278
  50.4415131  69.3406630  21.6968417   4.9827027  49.7090387  16.1306417
   4.2168382  50.2749109  16.2279677   5.6772310  50.1615620  16.6092694
 105.4963493  72.8727531  11.6827917 106.4322567  72.7339458  11.5377307
 105.0679779  72.2509670  11.0944760  72.6962614  98.1172657  76.2762499
  73.0081558  97.5512981  75.5701113  72.6488352  98.9881802  75.8819342
  86.5987873  86.8290424  74.2091179  86.2938690  86.7544079  75.1133823
  86.3849735  85.9839439  73.8137341  17.9312444  28.9122868  43.5445976
  18.0957961  27.9925108  43.3368349  17.0055079  28.9413381  43.7862587
  90.9518909 103.2685375   2.9394814  90.9449482 104.2219257   3.0244708
  90.0836372 103.0520344   2.5996497  71.5286112 104.2695236  40.1212502
  71.8767691 103.5763836  40.6821299  71.1383343 103.8051033  39.3808246
  12.8172827  52.9065561  35.5046082  13.4729791  53.5185766  35.8388519
  12.7804160  53.0846882  34.5648503   7.4574530  31.6606522  26.9643736
   7.8172421  32.4121904  27.4355149   6.8160093  32.0394826  26.3633156
  12.4358010  71.9141626  61.7634773  13.2230210  72.0345449  62.2945356
  12.2915971  72.7664566  61.3523388  20.5502892  57.0736599  22.2574592
  20.8396506  57.9730892  22.1040750  21.1589098  56.5364695  21.7502713
 106.9800663  58.1889343  50.0064421 107.4951553  58.9262772  50.3339148
 107.4618435  57.4135590  50.2944088  96.4740753  71.8023825  15.9014833
  96.9356060  71.9935465  15.0849831  95.5982208  72.1663141  15.7723856
  55.6503534  81.6524410  84.9723148  55.8088779  81.0120487  84.2787743
  55.6827211  82.4996471  84.5279980 107.7442837  58.0099821  47.3719597
 107.5018883  57.1039867  47.5634003 107.6244640  58.4705734  48.2024574
  91.1873245  52.7192402  40.1439857  91.5608692  52.8902245  39.2794251
  91.8386555  53.0588150  40.7577324   8.6117816  71.5242720  10.5894375
   8.0967575  72.2143269  11.0075343   9.5088458  71.8581486  10.5950642
 106.8977165  94.9594307  59.1566229 106.5736771  94.0863800  59.3780136
 106.2296200  95.3225517  58.5752249 109.8292351  54.4055653  38.5240054
 109.1325474  54.9618721  38.1756091 110.0399303  54.7901678  39.3748379
  98.0533218  47.8420210  39.7827721  97.3591709  48.5008907  39.7661710
  98.8248348  48.3147526  40.0950527 107.2429562  37.2079349  58.4134388
 106.7416096  36.5924859  58.9483261 108.0352974  37.3777986  58.9229298
 101.9895649  32.6429796  36.0893297 102.7285671  32.7631497  36.6857100
 101.2160683  32.7889490  36.6339684  27.4476266  70.9740305  25.5054832
  28.0124450  71.1228228  24.7471476  27.9358625  70.3567934  26.0503435
  30.0301814  74.3643951  64.5581484  30.8373451  73.9814806  64.9017954
  29.9465632  75.1996613  65.0181198 107.6189613  19.8265469  32.3873377
 107.4858475  20.1921964  33.2618737 106.7808533  19.4196188  32.1677566
  29.0534401  65.3487015  10.0266600  28.4200311  66.0302448  10.2514303
  28.5366774  64.5437622   9.9911618  48.6110449  50.0091934   3.5716543
  49.0736437  50.6838322   4.0687394  47.6843214  50.1842546   3.7352794
  17.8969896  55.3394508  44.2454195  18.1831849  55.8190918  43.4680700
  17.3779857  54.6127176  43.9008522 109.5909214  39.1985035  26.3333511
 109.5832062  39.0973711  27.2851634 110.5175591  39.1622710  26.0961533
  12.3141408  68.8610935  16.4749622  11.6408551  68.9905405  17.1429157
  12.1589530  69.5601940  15.8398211   1.3015521  68.6398172   1.9368275
   1.7072423  68.4664917   1.0873535   0.9027748  67.8061819   2.1863568
  14.9109781  20.5160213  11.9012249  15.7815945  20.2013874  12.1446669
  14.4238377  20.5341029  12.7249968 102.9076099  51.8817186  38.8986588
 103.4328938  51.8170834  39.6962404 102.5188828  51.0129547  38.7968183
  94.9742413  64.1117954  38.8408351  95.5376434  64.3559885  39.5751262
  94.1510868  63.8438511  39.2493033   6.0253173  79.9502707  34.6014452
   6.8247110  80.3448200  34.9500561   5.6990880  79.4006157  35.3139687
  22.3036003  53.0843544  51.4015293  22.2047067  52.1836662  51.0929585
  22.4352002  53.5975599  50.6043243  17.2365558  84.4942284   7.9593831
  17.1625495  84.1139030   7.0841074  16.6338742  85.2378082   7.9491729
   2.0577978  81.1636353  64.0650558   2.6968342  81.8662071  63.9456463
   1.2079267  81.5971851  63.9876652   7.8409100  48.3902740  27.2890019
   8.0397475  48.2579756  26.3620758   7.5816572  47.5244713  27.6042962
  11.5566623  55.6215906  33.6642814  10.6217384  55.4228830  33.7158942
  11.8620586  55.1389360  32.8961611 105.4807281  71.8617725  26.6859722
 105.9414768  71.6481113  25.8746147 106.0746956  71.5775061  27.3806858
  16.7399645  33.4752846  34.7652388  16.0122716  33.1928325  35.3192377
  17.1610093  34.1767645  35.2621102   7.1828425  61.1362362  22.5025177
   6.5627354  61.7656851  22.1344233   7.2356367  61.3664722  23.4301138
  97.3317814  13.4882116  90.6866169  96.5750599  14.0671468  90.5947876
  97.0498657  12.8233838  91.3149166 101.8309689  88.9063263  34.5148516
 102.5930119  89.1034222  33.9701676 102.1323776  88.2187271  35.1086354
 102.9876709  69.1902685  13.2804680 103.5538387  68.9478302  12.5477242
 103.5656738  69.6536064  13.8866508  82.3440742  50.6043863   6.9607002
  81.6195297  51.1822987   6.7213583  82.1438885  49.7761202   6.5246570
  33.5936713  89.8617554  32.1997666  33.4080696  89.4331264  31.3642669
  34.3078852  89.3491936  32.5784636  92.0367241  58.0199099  34.3814731
  92.8060436  58.4953213  34.6951103  91.3722134  58.1692934  35.0540328
  22.1145463  80.4996109  89.7010994  22.2394586  81.4464474  89.6367931
  22.8649545  80.1930523  90.2101517   7.8577513  64.9351120  21.1987448
   7.7318072  64.1426325  21.7206097   8.5650599  65.4037714  21.6418099
   6.7350954  57.0604372  37.4510694   5.9317982  57.4586725  37.1158791
   6.5853655  56.1181355  37.3743367   2.8393897  48.2141209  60.0872612
   2.5614884  48.7116766  59.3182087   2.9362190  47.3163843  59.7695637
   6.4089012  37.5359321  16.3307154   6.4393592  38.3554125  15.8370006
   5.7088685  37.0320868  15.9155929 103.5921669  93.5220718  19.1381550
 104.3651104  93.2922173  18.6224556 103.3612061  94.4031429  18.8438392
  34.5820880  55.1840782  49.4547081  34.6903205  54.2515182  49.2680264
  35.3100920  55.3975725  50.0383663 100.2054119  89.2623806  38.7739015
 100.9614182  88.7214088  39.0020061  99.4510746  88.6886978  38.9084196
   5.2537256  98.7067223  43.0104923   5.5286729  98.5575676  43.9151430
   6.0466683  99.0055847  42.5653458 105.6588650  74.9150753  36.9828582
 105.6313038  75.3376961  37.8412676 104.8132038  75.1237154  36.5859127
  16.2471807  56.3702917  48.4814167  15.3536391  56.6303349  48.7054539
  16.5143776  56.9909000  47.8034210 101.5637207  60.6667471  37.7613926
 102.3296738  60.0985527  37.8431702 100.9497833  60.1653910  37.2247767
  59.2098665  12.8363645  87.8341579  59.4983530  12.4776149  88.6733913
  59.9874640  12.7980268  87.2772884  96.6282272  32.1062398  76.5592003
  96.1934090  31.2822104  76.7786169  97.1026802  32.3460579  77.3552036
 101.7431355  81.7240143  29.7327542 102.5594711  81.7515087  30.2318215
 101.5075874  82.6433563  29.6080017  13.6114347  76.0440111  43.4025574
  12.9049397  76.2784433  42.8007793  13.4254634  75.1379395  43.6488914
 105.4658031  65.8935165  38.8539648 105.2253532  65.2898216  39.5567966
 106.4226818  65.9117842  38.8708234  27.4527860  51.1674213  38.6396027
  27.8962708  52.0154142  38.6611795  28.0125237  50.6183004  38.0906129
   8.5714406  14.3116069   7.9113275   8.0841660  13.7433517   8.5078859
   8.7611544  15.0947535   8.4279728  47.1948147  11.0333943  82.4542046
  47.0006847  11.9368732  82.7037525  47.7767467  10.7141817  83.1439114
  17.8042531  62.6466084  39.3203068  16.9940722  62.3766041  39.7526670
  18.1486702  61.8419170  38.9329123  11.5789807  55.9358215  36.4863038
  11.4225841  55.7439327  35.5616665  10.8763731  56.5393353  36.7278457
  16.4598906  61.6231346  32.1880555  17.0881021  61.1321688  31.6583967
  15.7948518  60.9784794  32.4296737  61.5398026  74.0190792   5.9141475
  62.1957970  74.5719147   6.3387346  60.9479284  74.6366310   5.4845607
  11.4787567  63.1489468  47.8524971  10.7229352  63.4677172  47.3591900
  11.1089504  62.5354767  48.4874249   1.9400609  63.7588024  20.5369544
   2.3751369  64.5254755  20.9099841   2.4600916  63.5410309  19.7634065
  31.7262197  88.5863400  88.5418987  32.0546150  88.2171154  89.3616962
  31.3110423  87.8480434  88.0960464   4.8638868  30.8607793  11.8101215
   4.9568340  31.8040538  11.9436395   4.2614007  30.5796266  12.4987400
  21.5968323  67.0742226  20.5120468  21.3148046  67.9338026  20.1992917
  21.1415052  66.9617176  21.3464642  10.1046014  43.5410929  54.9186754
  10.0398409  42.9122496  54.1999292  10.3958189  44.3520737  54.5018625
  26.9940805  43.4387255  35.9596443  27.4317026  43.0682087  35.1932001
  27.6974893  43.5755634  36.5942478   4.8065338  62.1114206  64.5606995
   4.9794528  61.3868427  63.9596033   5.4940623  62.0423937  65.2230978
   2.1177481  51.5152121  48.7317133   3.0629933  51.4620066  48.8728237
   1.7952789  50.6374598  48.9361620  30.0200295  63.1971025  30.3393936
  29.6180344  62.3294449  30.3818226  30.2247572  63.4109926  31.2496519
   3.6833867  50.9582806  30.5205202   4.5710009  50.6840086  30.2899790
   3.7829307  51.8602133  30.8252144  92.5285244  73.1715441   8.0707073
  92.4530029  74.0438652   7.6839441  93.4244156  72.8985977   7.8729242
  24.5070863  49.1169262  28.4046793  24.2338514  48.7837172  27.5499582
  24.9001503  48.3614826  28.8417602  21.6599107  71.6192341  13.5863137
  22.5833511  71.6813993  13.3421290  21.2629271  72.4120998  13.2257628
 111.8723392  85.0788784  35.9434199 111.3096142  85.4858494  35.2846742
 112.6414871  84.7869968  35.4540896  29.0867686  50.1993179  36.2416005
  29.2332006  49.3093872  36.5622497  29.5993018  50.2505732  35.4348063
   7.7274793  51.3358307  66.3034439   8.4052706  51.7791414  65.7932425
   7.7577704  50.4273033  66.0036182  96.4889050  76.8991280  40.4410124
  95.9404278  76.8606997  39.6574759  96.3794136  76.0417604  40.8523083
  88.8851070  76.6666412  34.6750069  89.6668720  76.6995668  34.1236424
  88.1632805  76.5379715  34.0596700 111.1250305  28.0746889  46.1527967
 111.0098553  28.8154173  46.7480230 110.2469635  27.7059340  46.0566282
  20.7623649  52.3903751   7.8130621  21.2411022  52.6491356   7.0256066
  21.3841653  52.5284004   8.5275859  52.0308113  82.1883011  87.3980904
  52.9738474  82.3523426  87.3958111  51.6918516  82.7293777  86.6849518
  46.2288809  64.7002506  46.1968279  45.2918863  64.5176840  46.2671757
  46.2739658  65.6004190  45.8745098  67.0476484  33.4013319  26.5699911
  67.7370691  33.0994892  27.1614504  66.2392664  33.2985044  27.0721626
  19.5954502  33.7420034  26.5971541  20.0120354  32.9646015  26.2252188
  18.7994111  33.4112501  27.0132732   9.1339856  43.5344696  51.9752359
   9.8507589  44.1284037  51.7522860   8.7845027  43.2528591  51.1297846
 108.3808231  69.0345097  11.7433929 107.9442787  69.0874243  12.5936055
 108.7487221  69.9077940  11.6082847  41.9378853  73.9522696  39.1755390
  41.2779427  73.7966156  38.4999061  42.7381468  73.5631561  38.8228345
  87.2819901  23.4515262  34.5146465  87.4552155  23.3652759  33.5772109
  86.8573475  24.3048954  34.6022201   6.3649309  92.4158096  47.4182415
   6.1444330  93.3427048  47.5102615   6.0575134  92.0146370  48.2311296
  37.4857664  57.9630566  46.8662977  38.4311700  57.8154516  46.8407011
  37.3942494  58.9019251  47.0287466  28.3185315  21.3801503  21.5170312
  27.7978134  20.8357048  20.9265518  28.1357718  21.0302854  22.3890543
 111.0549736  41.0992956  70.3087234 111.0579777  41.9541264  70.7394028
 110.7614708  40.4905891  70.9866333  26.3507843  35.3627491  64.6055794
  26.4227438  34.4093347  64.5602131  27.2129512  35.6541705  64.9021769
  97.7962112  89.9298096  20.7726932  96.9667053  89.4836998  20.9434199
  97.5600338  90.8544350  20.6983733  93.5034847  48.3657598  25.7386732
  92.8680038  48.5643864  26.4263844  94.3289471  48.2359505  26.2055683
   3.3875322  56.5319538   0.8859825   4.2733756  56.7964697   0.6378990
   2.8513634  56.7443085   0.1220056  61.7738914   4.8893189  83.8001442
  61.3082886   4.4296494  84.4988251  61.6595840   4.3328694  83.0297375
  93.2024765  74.1067839  27.5259328  93.8172436  74.6229649  28.0473280
  92.3732948  74.5799112  27.5955081 110.8315351  23.4947133   9.1600806
 111.5635491  22.9615784   9.4701660 111.1467944  23.8828802   8.3438885
  47.6797915  85.6709194  26.1841369  48.2495070  85.1409149  26.7415953
  46.8929052  85.1379204  26.0703230  97.2551250  59.8799849  49.5556068
  98.0706501  60.2853489  49.8502874  96.5676212  60.4613352  49.8805714
   2.8224263  62.6848412  25.5400825   2.8393093  62.9808426  26.4502072
   2.3057555  61.8793011  25.5597520  68.3310747 102.5518322  85.0971031
  69.2650509 102.4136734  85.2546883  68.0341768 103.0629253  85.8500004
   1.1604064  63.7362957  40.3375769   1.0866130  64.5759249  39.8839188
   1.7564946  63.2216501  39.7934723  33.1224585  70.9129620  21.4813232
  34.0284681  71.1105537  21.7186737  33.1806278  70.5452394  20.5994916
   5.2214867  71.4302874  48.0187082   5.6586856  71.7229795  47.2190714
   4.9175069  70.5456972  47.8154278  57.6085138  18.1545746  25.8894444
  56.8200493  18.1124485  25.3483486  57.9415798  19.0423810  25.7586861
   1.3559607  73.2687044  63.6073685   2.3067310  73.3482838  63.5303307
   1.0947716  72.7631998  62.8376436  20.5198193  89.1478443  19.6863818
  20.3325057  89.7678089  20.3912115  20.3919172  89.6525478  18.8831770
   5.3037959  64.3890524   0.9222096   5.0194937  65.0942564   1.5036650
   5.5597472  63.6803865   1.5125591  20.4989576   8.0435520  32.1892476
  20.4953790   7.1959782  31.7444587  19.8414445   7.9547518  32.8791904
 107.2645187  43.4920788  26.6261673 107.7066898  44.2796755  26.3092875
 107.7191639  42.7707386  26.1912107  18.2556462  56.4370537  18.0323577
  18.1777227  56.4819527  18.9853239  18.0495584  55.5272627  17.8177953
  97.3023701  37.7101326   7.1761745  97.2749138  37.9121590   6.2409401
  97.9824638  37.0414162   7.2568941  39.8544312  75.7415342   8.9783764
  40.4414892  76.4327240   9.2847323  40.1026297  74.9719810   9.4906443
 100.5566406  33.1479979  38.5117197  99.6979427  32.7530861  38.3603930
 100.4074574  34.0888453  38.4179926 108.4501171  37.7203846  55.3102970
 107.9990959  38.0279613  56.0965633 107.8341198  37.1108413  54.9038076
  14.4234800  76.3482761  13.7556744  15.3058279  76.2444830  14.1119349
  13.9890146  76.9473934  14.3627381  11.6779852  58.0659676  23.3773017
  12.3255897  57.4371576  23.0588126  12.0872772  58.4625769  24.1463375
  32.8281260  65.0952196  20.6182289  31.9206214  64.9088621  20.8589411
  32.8093147  65.1865530  19.6655834 100.9405613  26.2806678  18.6653054
 100.2037525  25.7721543  18.3265412 100.8514309  26.2267685  19.6168208
  47.1780109  64.5189619  32.5639105  47.5167942  64.1469574  31.7496181
  46.2267780  64.4536114  32.4795508   8.3462471  68.4242201   7.4996573
   9.2816567  68.5790586   7.3682582   7.9183489  68.9657688   6.8364370
 107.0320988  63.1124210  16.4652085 107.8013325  63.6162806  16.1994493
 107.0630836  62.3241520  15.9230793  25.7073116  38.0033445  17.1362007
  25.1777601  38.6835647  17.5522614  26.5490842  38.4259248  16.9656849
   1.1112139  73.4227467  21.3240361   0.2031121  73.4049129  21.6261387
   1.1736770  74.2213631  20.8000636  48.7968874  58.9088583  28.5954046
  49.2479038  58.5567617  29.3627644  48.5935688  59.8139477  28.8314295
  41.2155581  76.1102438  23.0821681  40.7785606  75.9324121  23.9150190
  40.5144167  76.0750151  22.4314833  31.6209817  78.4176016  69.8080254
  31.4022875  78.6088276  70.7200766  31.1498094  77.6074123  69.6135521
  40.8317804   7.3511457  15.2766788  41.1919880   8.0277264  15.8500218
  40.5721235   6.6470319  15.8708453  98.7481785 105.4300499  22.9968810
  98.5231018 104.5598984  22.6676297  98.0532074 105.6368446  23.6217618
  19.5436537  64.3903065  54.5844746  19.5509613  63.6772633  53.9459181
  20.0171900  65.1021528  54.1540432   3.3791006  62.6882696  29.2523670
   2.7868605  61.9513845  29.4023252   4.2398649  62.3606443  29.5130968
 110.3464508  28.7070966  27.2763324 110.6701851  29.5131826  27.6783895
 110.6377220  28.7597322  26.3660455   4.7407264  46.9177771  16.0840774
   4.8385775  47.8528881  16.2635911   5.5142611  46.5157795  16.4793885
 112.0765686  56.7054415  47.0376682 112.3481655  57.2469854  47.7787495
 111.4042568  56.1268711  47.3974895  92.0180225  68.5623455  32.5501609
  92.9239750  68.8687325  32.5902796  92.0904255  67.6190186  32.4048162
  21.4118791  48.6408377  28.0569696  21.4084578  48.6294174  29.0140939
  20.4931045  48.7583447  27.8155565  85.5152893  77.4539566  54.4847298
  85.2566147  78.2308388  54.9804926  86.3858891  77.6642656  54.1469955
   0.4431516  78.5221815  35.5364585   0.4940492  79.3265676  36.0527945
   1.3492758  78.2201004  35.4737353 103.6409187  55.5641508  31.1507344
 103.5667992  56.2601995  30.4978490 103.5469627  54.7543144  30.6491733
   4.0437850  47.3549414  40.2610111   4.5070809  46.5764332  39.9519563
   4.7280490  47.9055595  40.6415844   2.5577518  27.7388310  14.1942620
   1.6714653  27.5463200  13.8882089   3.1290933  27.2893381  13.5715604
  37.2051454   3.0776972  43.5826683  36.3279653   2.8187147  43.3003283
  37.0723701   3.9016473  44.0513992  20.7492208  73.0461836  26.0999060
  21.3089085  73.3862114  26.7980170  20.7680869  72.0965958  26.2188935
  92.0050812  68.8393307  61.4823580  92.0357990  68.9576006  60.5329895
  91.1739922  68.3917904  61.6412067  42.1303844  68.1932735  32.1818852
  41.9262934  67.4656773  31.5943646  43.0657244  68.3503485  32.0526576
  43.6503553  35.9864974  50.7631874  43.2616425  36.4964938  50.0525236
  43.6871433  36.5942287  51.5017939 102.6801300  70.9011745  29.9564409
 102.1462345  70.4245758  29.3208003 102.5277996  71.8240404  29.7531080
  64.7556639  75.7289362  56.3830853  64.0129137  76.3185787  56.2531614
  65.5185127  76.3065767  56.4081335   9.7453487  95.3782940  32.5958562
  10.5099475  94.8081017  32.6764655   9.8000687  95.7280159  31.7065144
  36.0098958  62.1335936  37.9547620  35.2981615  61.5800571  37.6334190
  36.6313028  61.5206575  38.3476973  27.4478960  18.4953177  37.0919704
  26.9952846  18.1869936  36.3069153  26.8060493  19.0490115  37.5365901
  93.9173412  39.5581794  12.1006262  93.4039211  40.3653097  12.0663953
  93.2940102  38.8680243  11.8739450  10.4927897  37.0643854  15.6951797
  11.3170433  36.8007874  15.2860904  10.1112485  36.2464190  16.0139096
  92.3739624  79.1906548  31.6349030  91.7180634  79.7855282  31.2713742
  93.1958580  79.4614649  31.2257910   1.0280691  19.1442120  23.1880331
   1.5741888  19.7119975  23.7317300   0.1446693  19.2528915  23.5402060
  17.1116352  78.1353378  22.0554447  17.0743310  77.1854401  21.9434834
  17.6924825  78.4362459  21.3566589   5.3689015  61.0556126  56.5516949
   5.1020837  60.1482344  56.4043856   5.6672019  61.0729313  57.4610615
  47.3295498  87.1038532  48.8380432  47.1833181  86.5105820  49.5748472
  47.0172453  86.6187191  48.0742741 104.6889114  80.2461529  41.1969757
 105.6051350  80.1159954  41.4415598 104.5284653  81.1763668  41.3557100
 102.9174614  64.6865177  47.4769354 103.3923531  64.2152739  48.1615067
 102.7032852  64.0155554  46.8287325  23.5174680  93.3245468  27.7067494
  23.1931162  93.9497185  28.3549714  22.7305079  92.8888321  27.3795271
  94.2181301  67.3657179  57.3701286  94.2019558  67.9742050  56.6314030
  94.0178680  67.9089928  58.1323528  21.3493967  76.7162037  40.0168085
  21.7149734  75.8426380  40.1563311  22.0458317  77.1990013  39.5717049
  43.9192247  73.3205223  47.6168203  44.2175055  73.2725048  46.7085505
  43.0111456  73.0193043  47.5869417   2.2054845  73.1968641  24.7282600
   2.9831174  73.6646318  24.4237709   1.5896562  73.8883734  24.9707556
  38.8103628  61.5404272  21.8694258  38.6792326  60.5949545  21.9409633
  39.7324347  61.6717339  22.0902729  52.0362425 104.8493385  86.7469406
  51.9245005 104.6518421  85.8170223  52.3210764 104.0219784  87.1349716
  49.4420385  68.2801104  11.1735630  49.4925928  69.1959286  11.4473486
  49.9292278  67.8022289  11.8447590 112.1918869  64.4955301  21.8315077
 112.7003098  63.9738894  21.2105203 112.1682453  65.3712273  21.4457345
  67.0325947  99.4663429  10.5302083  66.6124392  99.1367722  11.3246167
  67.9572439  99.2436600  10.6382728  38.2083344  66.1487341  31.7616892
  37.8899121  66.8042660  32.3822713  37.6699066  65.3759384  31.9323063
  27.6104832  92.5676632  75.3542137  28.4236336  92.2386360  75.7373095
  27.1014524  92.8782558  76.1029816  26.5376806  18.1948733  74.3943453
  27.2986698  18.3987617  73.8506937  26.5541244  17.2418034  74.4816303
  43.4094810  79.5106840  43.9493942  42.7825975  79.2700768  44.6315575
  42.9028463  79.4824076  43.1377554  87.7314854   6.3963205  51.5812874
  87.2234917   7.1529239  51.2885094  87.4036312   5.6686795  51.0528135
  32.2262788   3.6862609  31.2429571  31.8190646   3.0263287  30.6818008
  33.1320453   3.7347263  30.9372258   8.8314307  88.3311844  32.7768731
   8.3746660  89.0925884  32.4192977   9.7540486  88.5860920  32.7822733
 110.7287121  63.9876080  40.7617760 110.0737953  63.3548212  40.4669905
 111.5609455  63.5193872  40.6956196 110.3030300  60.0468874  58.0826044
 109.7488022  59.3190670  57.8009224 109.7391796  60.8174276  58.0149651
  31.9245625  83.4170151  37.3734379  31.9477248  82.7161884  38.0250120
  31.8749356  82.9612732  36.5331578  48.6351347 100.1153851  77.9656172
  48.5051775  99.1852379  78.1504536  47.9720354 100.3237343  77.3075008
  19.3026829  22.8800058  37.8100872  20.1009130  23.3956361  37.6952600
  19.4418073  22.1003056  37.2725511  36.4393020  63.4732056  41.9926977
  35.7213116  63.1574059  41.4440727  37.0482421  62.7360678  42.0379639
  11.0047877  39.2101336  18.2725418  10.9352362  38.2871604  18.0285871
  11.8108380  39.5090389  17.8516269  28.5980749  82.8063393  20.5730081
  28.1028795  82.2021008  21.1260939  28.2368731  82.6788330  19.6957934
  44.3732929  58.4557629   7.1211988  43.7418556  58.0527878   7.7171266
  43.8387489  58.8153267   6.4132375  98.8003159   2.0619743  13.9474785
  99.3876266   2.0851737  14.7029603  99.2505550   1.5065676  13.3110523
  13.7265396  82.1337605  11.6990864  14.1535819  81.4008045  11.2556517
  14.3191528  82.8732967  11.5644205  41.8771362  44.8950577  42.4560976
  42.7688742  45.1664782  42.2384644  41.7651463  44.0576077  42.0062351
  24.1866112  62.8542852  17.9331875  25.0111890  62.6524878  18.3754313
  23.6439037  63.2575989  18.6107111  88.2750280   0.1052541  41.8018436
  89.0594919  -0.4426795  41.7770433  88.5232313   0.8545083  42.3433733
  35.1173353  52.6268482   3.6902848  35.8822298  52.1680689   4.0376928
  34.3798208  52.2738028   4.1879430  38.2395554  79.1294289  39.5020819
  39.0658283  78.7724400  39.8277569  37.5921297  78.8718557  40.1583815
  15.7437825  51.8674755   5.8333540  15.2531719  52.0342016   6.6381741
  16.6365051  52.1481943   6.0345352  23.1235719  36.3884211  28.5038114
  22.2332120  36.0979295  28.3060598  23.5758615  35.5954361  28.7916279
  56.6832685   5.2798826  10.4176044  56.7173815   5.0448740   9.4903302
  57.4888659   5.7741058  10.5692267  74.5454931  70.8898497  51.9718838
  74.4837046  71.8376398  51.8531179  73.8698530  70.5317640  51.3961077
  45.1199102  32.3716521  56.7677021  46.0595465  32.5204754  56.8733978
  45.0501823  31.4511561  56.5146065  40.3703022  71.3069057  38.0973434
  40.2105474  70.4667807  38.5273457  40.8483076  71.0805559  37.2995305
 110.7216358  80.2108574  24.4525361 109.8832226  80.2147961  23.9907169
 110.5138206  79.8721313  25.3233480  37.8649378  67.2489309  26.9585371
  37.4768829  67.0959234  27.8200674  37.2932792  66.7789316  26.3514662
   9.5051658  78.1993294  42.2658253   8.5876024  77.9989004  42.0810604
   9.7021693  77.7067995  43.0625868  26.5577817  82.3588467  33.0009794
  26.3401103  83.1905270  33.4218979  25.9486222  81.7288685  33.3860493
   3.3398050  66.8872881  28.4917498   4.2555350  66.8701124  28.2135844
   2.9514372  66.1125898  28.0852485  48.4920597 100.6394482  87.7926922
  48.1450033 100.0895023  88.4950829  48.5219479 100.0626087  87.0294189
  19.6086109  48.5370255  51.3622522  20.4651761  48.5028505  50.9363890
  18.9806414  48.4838820  50.6417942 108.1956959  62.7276564  50.9475994
 108.0727386  62.2963333  51.7932177 109.0529442  62.4258184  50.6471777
  36.6586733  71.7468596  12.8348124  36.6249537  72.4915028  13.4353125
  37.4199963  71.2423706  13.1213665  47.7049541  75.1185513  23.2292914
  48.5821772  74.7362947  23.2535911  47.1415663  74.4502163  23.6193562
  10.9432662  67.5136471  28.7447643  10.7225680  67.4905491  29.6758890
  11.4305973  68.3300638  28.6343050 102.0942783  82.2507572  47.8709984
 102.5078106  82.8377533  48.5039759 101.9471073  81.4395142  48.3572626
  25.0628328  68.7229776  16.9015551  25.6846714  68.0489635  16.6272223
  24.2096686  68.3885908  16.6249132  48.1671381   7.8177822  50.4459000
  47.6780272   8.1915092  51.1789274  48.9064264   7.3684466  50.8555126
  21.1349559  82.1550083  19.3800890  20.9335899  82.9461956  19.8797870
  20.2812672  81.7602158  19.2023623   3.4018007  78.8645458  62.3001766
   3.0829194  79.2530298  61.4855433   2.7632684  79.1343975  62.9602432
   8.6716723  71.0436010  30.2459764   8.1041610  70.7564545  30.9613132
   8.0719662  71.4141178  29.5984387  21.7976618  76.6594553  43.8375378
  22.1331978  77.5171328  43.5767126  20.8457565  76.7554474  43.8076162
  95.2235985  26.3882303  71.4541674  95.1107502  25.7851911  72.1889067
  95.4604053  25.8256912  70.7168055  47.7276659  59.9773741  46.7130327
  48.2293653  60.5300426  47.3122692  46.9258928  60.4725218  46.5450382
   2.2662438  11.6833436  39.9840474   2.1479683  12.6090431  40.1969385
   2.8987977  11.3680458  40.6295633  43.3952093  40.7407045  55.5726862
  43.3290482  41.1472321  54.7086334  43.9157343  39.9508166  55.4265308
  15.4144394  45.6915283  31.5161347  16.3575363  45.5426407  31.4480710
  15.3312790  46.4272738  32.1227598  31.0856032  57.3217344  40.0660563
  31.2944102  56.8554926  40.8755302  30.1304626  57.3844671  40.0653505
 109.9889183  88.9403820  20.4899240 109.0962219  89.2027664  20.7146049
 109.8802662  88.2953644  19.7910857  30.5060196  87.1165085  21.5187478
  30.7165241  86.4051914  22.1236873  30.9146261  86.8573475  20.6928492
  68.2224894  63.1236792   4.9114218  68.0103111  63.5306978   5.7513916
  69.0273333  63.5592031   4.6307510  16.2622046  82.8264713  22.2961473
  15.4784608  82.8575993  22.8447890  16.1978579  83.6044502  21.7422152
   4.4727102 102.2777653  37.5675011   4.1059744 103.0461121  37.1300197
   3.7274107 101.6877937  37.6801682  34.7246289  57.8288984   2.5172469
  35.4549313  58.4108591   2.3069721  34.0304303  58.4149933   2.8186023
  24.6901321  89.2685223  25.6580305  24.0040612  89.2650032  26.3255095
  24.7349048  88.3613968  25.3557968   8.7801051  63.9819145  24.2349172
   9.5298231  63.5356426  23.8412213   9.0974969  64.8658609  24.4196677
  94.3774986  39.5453691  56.0005379  95.0821495  39.6112919  55.3560638
  94.0117264  38.6709642  55.8669043  28.5707760  60.6613970  45.0970316
  28.8949013  60.1910782  45.8651304  29.3435216  61.0999727  44.7410154
  27.2900009  35.6181717  52.8877068  26.5056777  35.8064771  52.3723364
  27.9308462  36.2656236  52.5938416  32.8239346  77.8397846  41.0024309
  33.0231690  78.6492157  41.4729214  32.9477310  78.0623960  40.0797462
  16.0703671  86.9434643  23.7024426  16.8046093  86.8799591  24.3132520
  15.3724110  86.4330769  24.1130376   2.7640387  50.1004887  13.2343256
   2.4234799  49.8157835  12.3862720   3.5599214  49.5834303  13.3586383
  26.5294313  80.9591103   8.8378447  26.1088777  80.4709339   9.5456910
  27.0384741  81.6362858   9.2834252  43.0705118  68.4664392  41.9246006
  43.8917351  68.2713032  41.4732170  42.9465675  69.4073963  41.8002272
  47.9090261  72.7355957  52.3377991  47.8299189  71.8013906  52.5307655
  47.8570557  72.7882814  51.3834620  43.0587864  42.9207087  66.5811300
  42.4071503  42.6117277  67.2105217  43.0810070  42.2418880  65.9066343
  25.0103784  59.9533844  28.9929080  24.1003680  60.1847076  29.1789246
  25.2339554  59.3049479  29.6605706  58.3252144  84.7500134  28.4149671
  57.4173880  84.9759197  28.2123637  58.6213636  85.4485989  28.9984870
  16.5123367  82.4749947  40.2350807  16.6155374  83.4257412  40.2758932
  16.9883895  82.1493912  40.9990072  79.6773958  12.0369709  61.4260054
  78.8486481  12.4343288  61.6934347  79.7180033  12.1809936  60.4805756
  27.0886874  88.1767941  42.9863501  26.8347478  88.1404018  43.9085340
  27.7759004  88.8422775  42.9532385  18.9527404  58.6561060  33.2818842
  19.2401111  59.5687962  33.3073044  18.5645068  58.5031605  34.1433454
 103.6914539  72.5993872  34.2950416 104.5794582  72.3390293  34.5397782
 103.2143307  72.6320171  35.1242065  52.1130323  63.7932444  22.2816968
  51.4842939  63.2988453  21.7558718  52.6795673  64.2200661  21.6389728
  50.6095982  90.8692169  55.2730227  51.2083626  90.6198692  55.9769678
  51.1718559  91.2737656  54.6123934  38.5194087  32.8324080  17.8442037
  37.7513194  32.4006891  18.2182193  38.1610250  33.4429193  17.1999443
  15.9032679  58.2337952  28.7208271  15.2001452  58.7079859  28.2769895
  16.2841141  57.6783609  28.0406189 102.1938229  43.5921574  55.3990173
 102.7950382  44.2544699  55.7397795 101.7197037  43.2798767  56.1696815
  15.1941252  81.5408611  36.3334370  16.0428500  81.7375565  36.7299294
  14.5805752  81.5417194  37.0681405  32.8678107  99.5597744   2.8432506
  32.7799654  99.1639900   3.7103543  32.0769882 100.0891590   2.7403706
  39.3711591  15.4470026  23.5846758  40.1794434  15.2868152  23.0975938
  39.0376711  14.5734096  23.7892509  93.7908936  63.5396528  50.3159332
  93.4491920  62.7346277  50.7050371  93.0607224  63.8866377  49.8034048
  42.1065283  84.1228390  37.6089239  42.6984549  84.8133850  37.9072642
  41.4291620  84.0798664  38.2838774  49.3176413  83.5767078  79.2272234
  49.8692083  82.8055000  79.3584967  49.1504049  83.5939789  78.2849026
  42.2405434  51.1123657  44.9193335  42.1608353  50.2403307  44.5327663
  41.6914368  51.6698456  44.3680286  39.6169162  86.1800385  38.3386493
  39.8718429  86.1392689  37.4169207  38.9968824  85.4590130  38.4477830
   5.5272955  71.3097858  20.0999188   4.9759722  71.9563055  20.5406976
   5.1124907  71.1832190  19.2466021  79.2869473  75.5752325  50.3926659
  78.8438749  75.8686543  51.1887980  80.2153301  75.7348537  50.5625486
   8.2323060  90.9205611  90.9420876   8.0683312  90.0116999  91.1937216
   7.9157624  91.4354284  91.6843454  24.5587325  76.8456459  36.5269470
  25.4214382  77.1278954  36.8307590  24.7160339  76.4971447  35.6494284
  44.8963690  95.4910278  35.5523705  45.8124447  95.5367565  35.8261299
  44.4065523  95.3981686  36.3694906   1.2045824  94.2939854  37.5103641
   1.1684600  93.5456085  36.9146705   0.4123496  94.7943020  37.3147082
  21.1177421  71.8331718  32.0484567  21.0414529  71.1381769  32.7022076
  21.3741398  72.6069212  32.5502586  13.4109354  54.6594667  25.1872373
  13.4023929  53.8559008  24.6672010  13.7091672  55.3354406  24.5786738
   3.8805139  63.9250469  44.7941542   4.8280963  63.9925385  44.6768332
   3.7225643  64.2720366  45.6721497  37.6002622  86.4735031  20.3346562
  38.4165502  86.5988731  20.8185840  37.8218341  86.6941833  19.4299817
 103.1383038  42.7800083  16.7391205 103.8732624  42.1959257  16.9259691
 102.7087021  42.9027557  17.5856483  39.3289566  96.3651848   1.4773531
  39.2260957  95.5800629   2.0151581  39.8961473  96.9371128   1.9944839
  42.2957468  98.5674763  37.3815632  42.7665901  97.9323864  37.9211950
  42.1903944  99.3317604  37.9481316  23.5660720  92.8149986   7.8824127
  23.8561797  91.9840527   7.5061315  23.9000440  92.8013325   8.7793565
  19.0598404  49.8192406  21.7947054  19.8980260  49.6285963  21.3735962
  19.2351878  49.7246885  22.7309465 110.8814526  96.0455894   6.3438362
 111.3185596  95.3162098   6.7833507 111.2598419  96.0569000   5.4646724
  21.9316483  74.2350006  42.7167463  22.7502728  74.1546297  42.2272301
  21.9612002  75.1159954  43.0898523  60.7046127   5.7802093   7.9883140
  60.2341175   5.9331244   8.8077545  60.2732420   6.3527590   7.3540139
   1.0469900  72.0894051  45.7254934   0.8870976  73.0297613  45.8054543
   1.2832655  71.8105507  46.6101646 105.3908443  59.4131231  62.3905420
 104.4413471  59.4804192  62.4913931 105.5832386  59.9113846  61.5962172
  10.1129043  47.4490643  25.4852939   9.6491450  48.1761694  25.0699925
  10.1993632  47.7122355  26.4015365  82.1796513  55.7900715  30.4686785
  82.8784370  56.2271404  30.9554124  81.3716698  56.1510468  30.8334970
  98.0358124  91.7074871  40.4512739  98.7975216  91.8632507  39.8929238
  98.4019184  91.5849876  41.3271666  14.2228460  56.9547892  37.2959185
  13.3900332  56.6325331  36.9512391  13.9879763  57.7336407  37.8003621
  31.7995000  66.3087273  36.8934584  32.0907879  65.3989172  36.9536924
  31.7471576  66.6041327  37.8024268  61.6963434  92.5690079  40.3059816
  62.6508522  92.6038647  40.2432966  61.4477444  93.4253597  40.6539679
  26.9394016  86.4950180  26.9583464  27.6350665  86.9687843  26.5024686
  26.5957689  85.8863831  26.3043475  33.0495906  71.4273643  44.0508986
  32.1246767  71.4693117  44.2938089  33.4582210  70.9182310  44.7509241
  11.9867349  52.5474405  55.0559282  11.5413308  51.7018270  55.0031757
  11.5585661  53.0856180  54.3901443   3.0086216  89.9563408  35.6420517
   2.6062915  89.7659683  36.4894724   2.8531680  90.8912277  35.5077267
  58.7137604   9.4665420  36.5909958  59.5998001   9.4223905  36.9504619
  58.1803942   9.8061669  37.3096108  22.4489236  55.7829857  20.7984710
  23.1555080  55.5563116  21.4031100  22.1903253  54.9479675  20.4084587
  90.0579834  88.0251312  44.3664122  89.2931938  88.1072807  44.9361324
  89.7670555  88.3727169  43.5233402  38.0471683  69.8288631  27.1001506
  37.2412491  70.1289082  27.5205112  37.9243350  68.8857031  26.9924664
  48.6140585  38.0665612  26.5161347  48.2716608  37.8889632  25.6400895
  47.9460096  37.7220225  27.1087837   5.1635152  47.1335316  33.8039374
   5.0086236  47.1962833  32.8614402   5.9232146  47.6946259  33.9596939
  91.1408520  69.9353838  10.3527665  91.3030624  69.6074200  11.2372792
  91.2727356  69.1744471   9.7872448  27.3649430  68.7497091  29.5150566
  28.0569720  69.3022203  29.8784566  26.5609026  69.0761375  29.9190354
  38.4298706  75.8695078   6.3489664  39.1529036  76.0686350   6.9437838
  38.5022330  76.5257454   5.6558937  56.0426855  73.6344194  50.7039070
  56.9834805  73.4979582  50.5920458  55.8379126  73.2169151  51.5405607
   8.4787798  73.3172560  14.6508253   8.1703079  74.2206430  14.7213244
   8.8662285  73.1290674  15.5056357  12.9923451  93.3734131  27.5798368
  12.0989728  93.7160587  27.5531173  13.5250926  94.1156101  27.8654051
  35.6147289  76.4529800  48.1208086  35.7608294  77.1100569  48.8013506
  36.4616418  76.3696051  47.6826096  89.1384125  75.7565546  14.4563770
  89.9404240  75.4076767  14.8453403  88.9378738  75.1541042  13.7400889
  85.9172821  71.0972309  45.4102135  86.8533802  71.2114096  45.5742836
  85.7198715  71.7169571  44.7079277  40.4961872  72.4183369  42.6664639
  39.6101141  72.3086882  42.3213768  40.7559538  73.2955933  42.3850870
  26.2051201  62.8701210  15.9243202  26.8854570  62.2028303  15.8343482
  25.4937410  62.4261665  16.3859224  23.2539272  48.2426119  26.0899878
  22.5879860  48.3781815  26.7640591  22.7904940  48.3816242  25.2640724
  34.0197992  59.8078346  30.5532646  34.8020482  59.4915771  31.0052609
  33.4304166  60.0801611  31.2566113  76.6232872   3.3249623  36.1890197
  76.7955542   3.4959263  37.1149397  76.7027330   4.1811854  35.7685399
  33.8812566  88.8285637  23.4118342  34.1236854  89.5620537  22.8466249
  32.9351687  88.7398815  23.2965708 106.3958740  83.7191391  44.5927382
 106.9295979  84.5137024  44.5854807 106.1061192  83.6169529  43.6861897
  63.0072975   2.2679152  24.1318345  62.0924711   2.3730572  24.3931246
  63.3436489   3.1620890  24.0722418  36.7213058 102.9862213  87.2204113
  36.6672134 102.6328945  86.3324642  36.7585468 102.2133350  87.7838802
   5.2290750  47.3575735  21.3010740   5.4686272  47.3043251  22.2262812
   5.0438869  46.4528799  21.0491586  37.2835803  80.2389622  47.0190334
  37.9825258  80.8779812  46.8798780  37.7416396  79.4235373  47.2227192
   8.3858138  85.1432037  77.1113014   7.4652255  85.3241825  76.9215727
   8.8680202  85.7923603  76.5991402  29.5673037  85.6622791  29.3719721
  29.2270422  86.5561390  29.3337560  28.7864614  85.1104832  29.4172168
   9.6608442 103.4438705  58.5788441  10.1305187 104.1566467  58.1457233
  10.3507245 102.8689098  58.9100790  35.0551391  50.9363413  18.1444693
  34.1237807  51.0476255  18.3353090  35.4357409  51.8014240  18.2961547
  43.1717205  55.6686449  24.5921206  42.6432085  56.3700390  24.2113972
  43.0000687  55.7227516  25.5322504  42.8601360  61.6261053  57.8615856
  42.2283983  62.1673489  57.3880959  43.1373453  62.1706486  58.5983801
  47.6489115  40.4826641  16.1259592  47.9952669  41.2942696  15.7550526
  47.2929430  40.0086403  15.3744161  56.3454294  92.6395893  31.8133235
  55.9534931  92.1637154  31.0810971  56.7400789  91.9584465  32.3578620
  51.7143488  87.1034050   1.2801512  52.0296049  86.6560841   0.4948130
  52.0580149  86.5831089   2.0063856  46.8641043  55.4659176  11.3369226
  46.6738367  56.0426092  10.5970216  47.7987385  55.5893278  11.5026248
  17.6663601  82.4650002   2.0927027  17.6483798  82.1958733   1.1742906
  16.9944179  83.1437016   2.1566026  66.6284275  46.8435526   1.7670976
  67.1221447  47.6403475   1.9609815  67.0934772  46.4469147   1.0304544
   9.7878003 104.1516876   0.5745493  10.4400945 103.9880466   1.2556989
  10.0655711 103.6039162  -0.1596329   5.1119757  66.0883760  65.2840900
   4.2049551  65.9597874  65.5615997   5.6338483  65.8286715  66.0433245
  16.8697131  42.4556971  33.2274890  17.7393389  42.5838900  33.6063647
  17.0393658  42.1561766  32.3343253  15.3396249  41.9089270  24.6355724
  14.5804107  42.3189259  25.0499701  16.0422587  42.0003891  25.2791333
  10.9395432  34.0259528   7.4323612  11.7021394  34.6025920   7.4788892
  10.5120301  34.1251111   8.2830268 110.6281948  74.4444847  23.2769656
 110.1778126  75.2474308  23.5389900 110.4388332  74.3576193  22.3427129
  52.1003962  81.0529518  34.1966128  51.6139078  81.2669945  33.4005332
  52.6477337  80.3075123  33.9496899  64.6372986 101.6459179  33.8952255
  64.4258261 100.9720707  33.2491302  65.3883028 102.1077919  33.5225391
  67.9192114  54.9932957  20.0073814  67.6508617  54.9458885  19.0897894
  68.8250494  55.3010893  19.9764156  36.0323238  77.7504683   9.7312218
  36.6908383  78.3333206  10.1092041  36.2615585  76.8825912  10.0635910
  17.1249545  68.3530188   1.7657004  16.2670743  68.7025309   1.5246320
  17.6492417  69.1266727   1.9726329  16.7990065  96.1217022  30.2309561
  17.6343298  96.0451412  30.6920481  17.0420372  96.3155937  29.3256545
  31.5098286  55.0799799  14.9103808  31.0476756  54.6867132  15.6506407
  32.2133398  54.4620848  14.7116244  99.9336338  94.1896439  25.6353307
 100.2014160  94.7192001  24.8842692  99.7517014  94.8274899  26.3254547
  39.4409013  59.4020748  50.1505089  39.3968368  58.4851313  50.4216194
  38.5271978  59.6848202  50.1126528  59.2287207  21.9077158  30.5273271
  59.3200970  21.0576248  30.9577036  58.5051918  22.3327708  30.9878302
  38.6587811  33.2479715  20.5587173  37.7570033  33.0602622  20.8190870
  38.6765766  33.0775690  19.6169770   5.0434136  93.3877468  52.6213932
   5.9358805  93.0418682  52.6312971   5.0520843  94.0532494  51.9334507
  93.8668156   6.4808214  72.4630785  93.4715366   5.6091982  72.4470043
  94.4314384   6.5020418  71.6904259  14.1296458  59.2451000  30.6761909
  14.2927122  59.1216230  31.6112804  14.9490440  58.9870071  30.2540445
  66.4456256   0.2646035  30.0678515  66.1805208   1.0479039  29.5857835
  65.8054621  -0.4004985  29.8147631  36.5716171  66.0627413  10.9990191
  37.4150157  65.6381893  10.8419704  36.7873788  66.9878626  11.1166310
  98.0768585   4.4650707  73.2184410  97.3849583   4.0462035  73.7303495
  98.0809116   3.9900884  72.3874140  12.5636339  93.5632801  55.6248379
  13.3306682  93.2035255  55.1793432  12.7353013  94.5035934  55.6756878
  17.1250224  61.8170691  25.9973621  16.6648662  61.7386007  26.8330240
  16.4316750  61.9712448  25.3557014   2.4594559  66.3383961  21.9481421
   1.8399680  66.7250538  22.5669813   3.1294900  65.9353304  22.5002480
  53.9103127  34.2886019  29.1579652  53.1537056  34.3535900  28.5752535
  54.0137911  35.1705098  29.5153999  27.7817035  59.3371677  68.3871174
  27.7961254  60.1864433  68.8284302  28.7045479  59.1035557  68.2870340
  51.9450855  74.6042967  22.8786826  51.7050648  75.4121590  22.4248362
  52.9015160  74.5858145  22.8451228  96.5620422  85.6762791  21.5314960
  96.5238094  84.9209118  22.1181798  97.4008465  85.5861092  21.0792828
   3.4552890  27.9421234   7.3728240   2.7538118  28.0417824   6.7292172
   3.0134287  28.0016637   8.2198465 112.1997153  94.8470402  26.1283469
 112.3236235  95.5222225  25.4612613 111.3186313  94.5096302  25.9668612
  11.5786767  90.8272552  44.4869041  11.4911246  91.7019176  44.8657513
  12.1391892  90.9528828  43.7212229  52.4387836  56.8866682  20.7672763
  52.4968290  57.8090572  21.0163951  53.1343269  56.7690897  20.1202679
   3.8949960  47.0256376  79.2333317   4.7785640  47.3299599  79.4405222
   3.9885792  46.0802364  79.1163349  14.0191031  57.9674530  41.6765308
  13.5540652  57.1994925  41.3445473  13.3974695  58.3845425  42.2730541
 110.4070950  84.1399002  46.3585234 111.2992573  83.7942314  46.3301420
 110.4486275  84.9518299  45.8532715 104.6544743  45.0538254   2.8421116
 103.8116837  44.7001028   2.5578257 104.8312283  44.6129322   3.6731386
  97.1490669  73.0698490  26.8010640  97.4346924  73.2876730  27.6883078
  96.3971043  72.4910879  26.9268322  96.1907005  91.9972038  30.4504132
  95.5633640  91.6742802  31.0972428  96.9364166  91.4013386  30.5217409
  20.9455943  90.0624847  51.1764050  20.3745008  89.3163681  51.3591528
  21.8119597  89.6756363  51.0499239  21.1764812  64.6165752  36.0825515
  21.7981815  65.3430462  36.1268616  21.6756654  63.8556957  36.3793778
 106.6390514  49.2677116  28.2580543 105.7622814  49.6414280  28.1695366
 107.2106266  49.8880434  27.8055978  40.5051756 101.5418339  58.9173889
  41.3624954 101.1167240  58.9401865  40.4097319 101.8401527  58.0128860
  66.9056273  98.7517643  58.7744141  66.6568851  99.6326637  59.0543795
  66.9896841  98.2563210  59.5890951  45.4294491  75.0496244  35.6106496
  45.0797606  75.5920887  36.3175321  46.2671757  75.4561090  35.3887987
  65.3788137   1.1965390  49.0513897  65.0358582   0.7255168  49.8108339
  66.2266064   0.7871789  48.8784695  51.7160749  95.4583263  73.3326626
  51.6698599  94.6667099  73.8688040  52.6288748  95.7389545  73.3980799
  19.5831668  96.8029118  55.4892111  19.5189142  97.3311424  54.6935558
  18.8809431  96.1578083  55.4057789  24.0169144  83.4739876  10.0884199
  23.5453200  84.0306950   9.4688183  24.8557925  83.2983971   9.6621776
  37.4013162 103.1870079  15.9465742  38.3332229 103.3299065  16.1119831
  36.9934130 104.0339470  16.1269701  37.7689147  82.7499199  32.5314045
  37.1677613  82.0787048  32.2084332  38.5757565  82.2740746  32.7284002
  38.5733604   9.0810400  15.3402138  38.2203960   8.9710635  14.4572914
  39.3268180   8.4915322  15.3720951  15.8257818  62.5388145  20.3573895
  16.7114472  62.3345995  20.0571799  15.8548403  63.4710455  20.5726433
  18.5957193  10.3605664  85.8554173  18.3493745  10.6383574  86.7376709
  19.4246650   9.8966342  85.9730911 109.8808765   1.1509806  25.1629567
 110.2516365   0.3290226  24.8417783 108.9675140   0.9415853  25.3583002
  28.8699245  80.8742714  24.5893717  28.3460903  81.4980602  24.0866590
  28.3401442  80.0772762  24.6085215  21.3649678  96.0346603  41.7616510
  20.9361148  95.5285168  41.0716248  21.9804692  95.4204845  42.1618700
  42.4978256  74.9185753  13.5245097  42.2260666  75.2685785  14.3729663
  42.4421263  73.9686537  13.6283171  48.8160610  77.9941797  60.3492022
  48.0615950  78.5828733  60.3278446  49.5159531  78.4861326  59.9198294
  33.6329627  67.4064112  41.9006491  34.4578481  66.9313192  41.8002224
  32.9630446  66.7228603  41.9146490  70.1110029  77.2513676  45.6890488
  70.5826378  77.4475431  46.4985561  69.4774818  77.9636669  45.6023264
   8.9498466  80.2958870   5.8305651   9.6224612  80.9744072   5.7719749
   8.4675664  80.5051517   6.6304672  46.5666103  62.0280647  34.3751574
  47.0381880  62.4833632  35.0726891  46.8824911  62.4340534  33.5679245
   1.7967007  64.7328901  36.7904592   2.1419749  65.3545284  36.1496878
   1.7486393  63.9025068  36.3167644  30.7281160 100.5454540  32.9348183
  30.2376151 101.3169384  32.6511860  30.1789045  99.8047161  32.6780820
  34.3593383  42.3087883  22.9784012  33.9082050  41.5377140  22.6346564
  34.2335892  42.2572851  23.9259076  22.6593971  68.5933399  12.3338807
  23.0120587  67.8517437  12.8257096  22.3537874  69.2027569  13.0057776
  75.6381750  79.1093683  24.7445107  75.9934139  79.4666958  25.5583620
  76.3684607  78.6283350  24.3552494  15.4766738  52.4091244  17.4611485
  15.6369603  51.4743519  17.3317635  14.7068524  52.4437857  18.0289567
  44.9059629  80.0432873  58.1372070  43.9637566  80.0958920  57.9768610
  45.0295115  80.4748821  58.9826012  85.5242729   4.2612317  46.2253714
  86.1483669   3.6658686  45.8103132  84.6730518   3.8420695  46.0990381
  50.5236387  27.0334530  57.3109531  50.6611061  26.1894035  57.7409697
  49.7186661  27.3731542  57.7019167  47.1952438  93.9363861  28.3257294
  48.0632448  93.5425472  28.2379699  46.6205645  93.2030201  28.5451937
  26.7330956 101.7090988  27.0427752  26.5102434 101.6476154  27.9716396
  26.3193893 102.5212765  26.7504597  46.5499687  61.1788893  38.4033537
  45.9617615  61.4274549  37.6902890  46.7119598  60.2455664  38.2658958
  15.7871842  83.6579227  47.6664019  16.2815118  83.1341743  48.2969189
  16.1678743  84.5337296  47.7318382   8.9302081  96.8752480  20.2859902
   8.8622737  96.6093922  19.3689656   8.3103812  97.5995827  20.3719187
  54.1578817  82.1469116  18.1729639  53.7718010  82.6063538  18.9186776
  54.1645765  81.2265968  18.4360099  92.7071667  20.6105232  78.1733799
  92.2928715  19.9122012  77.6664877  93.0103302  21.2363958  77.5156450
  21.3702607  64.9532318   1.1264926  21.8211651  64.5959663   1.8915293
  20.8132362  64.2373323   0.8208071  61.5833378   4.5627916  27.0681334
  61.2455082   4.0222269  26.3540649  61.5971231   3.9777192  27.8255844
   0.9505181  68.4493399  22.6459885   1.7128840  68.5736752  22.0806837
   1.0470915  69.1140175  23.3279729  47.7570772   9.5413566  29.8872018
  48.6224270   9.1976988  30.1092410  47.7945709  10.4645252  30.1373744
  46.5238237  58.3918810  18.2195437  45.7588673  58.9671803  18.2297492
  46.6978073  58.2411957  17.2904289  15.3027844  61.1492443  47.6458645
  15.4389262  61.7438650  46.9082212  15.1116395  60.3037643  47.2398329
  39.9110055  91.7104721  22.0403361  40.8601427  91.8089867  22.1156025
  39.7918749  91.0594845  21.3487768  43.1190491  42.4692726  29.9826884
  43.4161472  43.2165480  29.4635081  42.8221798  41.8303251  29.3347311
  23.0851221   5.2828765  31.0476422  23.5420322   4.4487458  30.9395146
  22.6162791   5.4078650  30.2225375  39.0658259  56.1459827  34.1535306
  39.5506096  55.5703831  34.7450519  39.7084093  56.7979240  33.8737178
  22.5222325  75.2061844  36.4166069  21.8107605  75.7092667  36.0204434
  23.2883382  75.7751751  36.3420057  22.3322558  68.2742548  29.8445201
  22.5978684  68.0456305  30.7352567  22.8562951  67.7020359  29.2840004
  14.7430170  94.3931293  39.9015880  14.0337718  93.8771534  39.5182157
  15.2901161  94.6395493  39.1558027  25.9385443  83.7516785  38.9918470
  26.2793946  84.5435333  39.4078159  26.4276767  83.6822891  38.1719899
  27.5509572  67.0932913  16.4013231  28.3734131  66.6043663  16.3739586
  26.8714857  66.4190912  16.4034617  27.6246572  66.1709404  61.1623001
  28.4695148  65.7255363  61.2259960  27.7878976  66.9118357  60.5786371
  37.9819322  80.4882526  35.3628397  38.5054016  81.2264252  35.6747937
  37.0889759  80.6939983  35.6394839  76.2021875  19.4458354  15.2537799
  75.4670334  19.0287304  15.7030118  76.3181353  20.2803636  15.7080352
  41.7117691  69.8887300  21.9592690  40.9520817  70.4376841  21.7649746
  42.1705341  70.3536320  22.6590061  88.0340862 104.4820786  18.4125674
  88.1646442 105.1700115  19.0652096  87.7216530 103.7303829  18.9161229
  34.6748805  69.8495626  24.3423080  35.1838160  70.2974319  23.6665630
  34.3353724  69.0673447  23.9074445  93.0299759   4.7457236   6.4303797
  92.8483582   4.5337051   5.5147952  93.4765720   3.9709079   6.7716098
  20.6635523  95.1151657  33.7450862  21.4742374  94.7415543  34.0906882
  20.2742720  95.5731869  34.4900036   3.3273023  90.7124233   9.1675973
   3.4143695  90.6420708  10.1182294   2.7552488  91.4682961   9.0347666
  40.2763605  84.6767616  43.2723570  40.8251047  84.7995663  44.0469694
  40.4820299  85.4250813  42.7120495  50.1693106  86.7488575  27.6324487
  49.8430347  85.8516312  27.5633788  50.6338167  86.7710495  28.4690928
  53.5167408  97.1409416  10.9350133  52.8282309  97.4043274  10.3244281
  53.0474138  96.8823719  11.7281771  57.2609282  14.5278060  33.5963058
  56.6286087  14.9990094  34.1388655  57.7692556  14.0072441  34.2182779
  15.3045928  67.8822184  23.9061069  16.0835481  67.7247524  24.4396472
  14.6140051  68.0728579  24.5409107  25.1101422  97.8567028   4.0564758
  24.8401952  97.5059700   4.9052069  24.6655822  98.7021255   3.9943248
  95.9104538  57.3849440  31.4366317  96.3777828  56.9397736  32.1434999
  94.9873161  57.1932316  31.6018629  45.8840513  88.0470943  39.2716694
  45.1615047  88.6044693  39.5606208  46.3538265  87.8276443  40.0762701
  73.7485695   4.4261628  14.3352985  72.9375648   4.1830254  13.8887751
  73.6888552   3.9989784  15.1898038  47.2958565  14.1664350  20.5978823
  48.2226706  14.3945384  20.5256748  47.1794176  13.4404480  19.9850047
  38.1608200  79.7436523  62.9385233  38.9503098  80.2626324  62.7849007
  38.1831193  79.0675163  62.2613430  27.2762704  63.2964802  39.7056580
  28.0501366  63.6692381  39.2832661  26.7420697  62.9699898  38.9815950
  29.0454364  75.8340311  18.2837045  28.5295391  75.5102205  19.0221000
  29.8460031  75.3096581  18.3025968   8.6401421  99.9634361  19.5877695
   9.3511117  99.4479179  19.2069840   8.1677222 100.3142738  18.8328099
  20.2094579  73.4364462   6.9169122  20.2559614  73.4018660   7.8723562
  19.2981243  73.2257271   6.7136890  23.0933118  87.1728420  83.6932182
  22.4616838  87.7793598  84.0797615  23.1699610  87.4554634  82.7819061
  40.1641893  74.0532827  31.0521269  40.6577778  74.8702383  30.9801507
  39.7278190  73.9616776  30.2051187  37.4530268   6.3967049  34.9653745
  37.3552895   6.6431749  35.8851194  36.5733862   6.1358976  34.6925259
  22.4804497  66.6557217  50.9843016  22.3534441  67.0908213  50.1412153
  23.2698846  66.1277533  50.8648300  12.9727614  72.7740431  10.9186864
  13.9126468  72.9275465  10.8223355  12.8481174  71.8674755  10.6379151
  22.7998519  43.7973833  40.5505562  23.4445810  43.3411407  40.0098181
  23.2922959  44.0843248  41.3195801  38.6873078  76.4515448  29.1526318
  38.8207483  75.5380011  28.8999248  38.0209184  76.4153528  29.8388147
  67.2051525  71.4177513  75.7735920  66.3452101  71.8340063  75.7147932
  67.8052139  72.1353340  75.9766531  22.1425676  62.4661398  28.3093691
  21.3611484  62.6283979  27.7808905  22.6523447  63.2730770  28.2371664
  28.1192470  40.9622860  47.7803183  27.8338242  41.8634701  47.6298618
  27.6279283  40.4456425  47.1416330  35.9254098  87.4836349  47.4077606
  35.7013559  87.5392151  46.4788151  36.0147786  86.5457439  47.5768948
  45.2088547  78.2710743  39.8130751  44.7468185  77.5835800  39.3333864
  46.1076498  77.9499149  39.8855734  63.9529324  94.7081470  29.6876383
  64.1869068  93.8654041  29.2987037  63.0205917  94.6283436  29.8891425
  39.0962601  59.2752647  28.0240178  39.2091417  58.7836552  27.2105002
  38.7516117  58.6340189  28.6455131   1.7512545  93.6496449  12.8123939
   2.3950174  93.1805515  13.3431947   2.2067922  94.4421387  12.5283623
  87.8570557  27.0505643  88.9662457  88.1227684  27.5568080  88.1985664
  87.4196625  26.2795520  88.6050606  50.4997826   3.4918141  36.2013006
  50.7171869   2.9343581  36.9484353  50.7948780   2.9952189  35.4380560
  44.8904753  62.9214001  29.3517923  44.3310881  63.5989952  29.7315073
  45.7396603  63.0467319  29.7753620  62.3642731  92.4018764  35.8297610
  63.0978823  92.3643970  35.2160454  61.5870953  92.4376297  35.2721334
  35.1685023  88.5886955  34.4129229  35.6634927  89.1524220  35.0074196
  34.6604753  88.0189991  34.9904919  55.8663511  61.4758348  20.8729267
  55.4392338  61.6627884  21.7089009  55.2280521  61.7450285  20.2123642
  49.5921326  65.1999617  20.4601145  49.1392946  64.7030163  21.1414456
  48.9659548  65.2408838  19.7372973  21.3200188  92.3376083  55.6120157
  21.7423177  92.9113293  56.2513399  21.8835068  92.3839283  54.8396397
  66.5355682  10.9075916  38.5365343  66.4103508  11.3891864  37.7188420
  67.0569897  10.1444519  38.2875967  88.7908173  29.6538615  91.1948681
  89.0423489  28.7305689  91.2170506  87.9801559  29.6935129  91.7023087
  50.4153728  71.3570166  18.1809342  50.7316303  72.1823120  17.8133786
  50.0436258  71.5993929  19.0290415  38.2140017  72.4955606  41.0735369
  37.3581386  72.9052448  40.9474850  38.3664203  72.0057249  40.2654123
  29.7547650  98.1526184  12.5047588  30.0437665  97.2723198  12.2643757
  28.9566326  98.2903290  11.9946098   3.4499368  54.8463726  88.7259769
   2.5923628  55.2261114  88.9172840   3.4292904  54.6698475  87.7854252
  39.6346784  84.4972992  48.8747072  39.2731929  85.3531265  48.6442423
  40.0431538  84.6322155  49.7297907  65.6299305   9.3178606   7.0261097
  64.8332977   9.0536171   7.4863046  66.2591982   9.5026290   7.7233309
  31.7618265   0.8465070  53.2375669  31.7506876   1.7545671  52.9350233
  31.1215581   0.4012651  52.6825523  18.6908710  76.2306786  48.7815380
  18.8430357  75.8009815  49.6232224  19.3103921  76.9602537  48.7696171
  22.6790619  62.1537399  61.7202330  23.3830881  62.1285582  62.3682690
  22.1076775  61.4237976  61.9588423  31.0536623  98.9414597  68.8196135
  31.8125010  99.1849518  69.3498087  31.3546157  99.0309334  67.9153728
  86.9706249  59.0555525  73.3826780  86.3472176  58.3294773  73.4029436
  87.7147007  58.7468672  73.8996840  46.7724037  86.1046600  30.2945328
  47.5093508  86.6824913  30.4926634  47.1330690  85.2213860  30.3718734
  95.8473015  89.0764713  37.4430323  95.5966949  89.5181274  38.2544303
  96.7021561  88.6907101  37.6344919  18.5917473  99.7071838  12.6192927
  18.7400317  99.7134399  13.5649168  18.2416153  98.8350582  12.4375200
   2.5959954  78.0215836  30.1997423   2.0005745  77.3653936  29.8376346
   2.0811258  78.8283205  30.2175617  54.0929365  71.1038494  49.3060637
  54.1002798  71.9889498  48.9416838  54.4206333  71.2097883  50.1991653
  54.7778082  15.4317343  31.8643427  54.9238491  14.5728922  31.4677405
  54.9713373  15.3028023  32.7928662  21.7192738 105.5081275   3.6002156
  20.9244053 105.7516801   3.1257725  21.4077084 104.9756300   4.3320671
  31.7614603  48.4745884   3.5789868  31.6772652  48.0551386   2.7227131
  30.8687711  48.4965563   3.9237434  75.6920815  91.8805790  63.0562305
  76.4739418  92.1795464  62.5919628  75.9470797  91.0410595  63.4388638
 106.6342449  60.0028849  29.1961575 106.3741493  60.4281950  28.3790326
 105.8259773  59.9492884  29.7061133  32.9344296  96.1093521  17.9911637
  33.6802673  95.8553600  17.4476171  32.1881533  95.6534672  17.6019657
  38.4785771  50.7772589  45.1981878  38.9943862  49.9857092  45.3518915
  37.8802729  50.8218384  45.9440279  32.6610112  21.3162899  34.0121508
  32.7897549  20.4248977  34.3363023  31.7119646  21.4404535  34.0232587
  73.1070375  92.1737862  28.0868721  73.6993933  92.6766777  27.5279045
  73.6289072  91.4256382  28.3769751   9.5508707 105.1693535  40.2878523
   9.1065621 105.1785946  41.1356354  10.3085077 104.5996475  40.4206991
 112.4131257   2.2849727  64.7610378 111.7332581   1.7557049  64.3440390
 112.9951763   1.6461888  65.1726246  60.4647207  10.4608691  33.3471847
  60.8734894  11.2750602  33.6408377  60.8551264   9.7839165  33.8999510
  27.5944233  82.1622372  17.8779423  28.0782127  81.5846443  17.2875464
  26.8260026  82.4304962  17.3741543  52.6432037  70.8351898  26.7887878
  52.9461861  71.2683392  25.9907818  53.0234480  71.3505363  27.5001717
  52.1645784  81.5592194  58.2529640  53.0488825  81.4025974  57.9217339
  52.2646236  82.2849083  58.8690758  46.5058851  60.2243328  23.1055689
  45.8144045  60.8831263  23.1694198  46.7493296  60.0438547  24.0135288
  42.8525686  79.0000868  12.7750552  42.1077967  78.6820364  13.2853472
  42.6656866  79.9277830  12.6312399   4.3415594  96.9338131  19.4185770
   4.5785612  96.6502094  18.5356104   3.6529064  96.3262558  19.6885216
 105.3984928  47.9882956  21.9796443 106.1881924  48.4106350  22.3176432
 104.9855804  47.6001549  22.7510595  74.8079300  24.1746426  54.6501780
  73.8834429  23.9291382  54.6143579  75.1889658  23.7887239  53.8614368
  55.1283932  95.1032162  32.3996782  54.3444586  95.3439999  31.9060183
  55.2138901  94.1590118  32.2677755  24.0687180  73.2215214  17.0104992
  23.8706923  73.7019253  17.8143847  24.8923445  72.7710390  17.1974075
  44.8561335  87.5811195  53.1129599  44.1178703  87.9898930  52.6611757
  44.5435476  87.4441147  54.0072489  18.9645386  89.4318199  35.0181413
  19.1021967  90.3455067  34.7681999  18.1371522  89.4372177  35.4994273
   9.9271137  82.6047993  46.0083199  10.6062758  82.1349907  45.5243206
   9.8057830  83.4195900  45.5208492  45.5162287  88.7174320   9.5078987
  44.7945261  88.3176327   9.0225804  45.5107498  88.2721901  10.3552246
  73.6879301  65.7584381  24.8864007  74.2822933  65.8924818  24.1481590
  74.2172480  65.3016663  25.5401683  47.8693628  79.6721649   1.5024716
  47.9881048  80.6141758   1.3810678  47.7949429  79.3236780   0.6140735
 107.6879501  58.9818287  16.2057519 107.7742767  58.4602451  17.0037055
 108.5071945  59.4738770  16.1514366   6.6974527  92.5207710  34.2190552
   6.4034861  91.9805813  34.9525523   7.4915594  92.9483700  34.5396590
  32.9158497  63.6915350  24.6741343  33.6579585  63.1243992  24.8835707
  32.8494883  64.2851543  25.4220915  81.8854141  27.9380774  24.6939921
  81.1455345  27.6560450  24.1561580  81.7410851  27.5152564  25.5405283
  57.0850229   4.5119098  71.9951105  57.2067690   5.2030450  71.3441563
  56.8927193   3.7285987  71.4796734  29.1894436  78.1086779  49.2658901
  29.1041183  78.3949614  50.1752806  29.4586372  77.1921825  49.3275642
  30.7059026  68.3229399   7.9753709  29.9066949  68.8202381   8.1491292
  31.1866379  68.8558197   7.3419976  88.9898586  20.6266832  69.5214272
  88.8810635  21.4409781  70.0126696  89.9221420  20.4236054  69.5978403
  35.9969664  95.1941681  25.6388760  36.0218358  95.8701134  24.9615860
  35.0930643  94.8793507  25.6299853  55.2042866  92.8337765  24.2709398
  55.7773447  93.3699512  23.7228990  55.6727886  92.7548122  25.1019049
   8.7297660  84.1269302  34.1557622   9.4583297  83.5061550  34.1479635
   8.2655287  83.9617157  33.3351421  69.4280624  19.9266064  48.9484024
  69.1772604  20.7127023  48.4632397  68.7718201  19.2743087  48.7032890
  69.5323372   4.6309659  59.1949368  68.7512255   4.9972537  58.7802839
  69.4528961   4.8785132  60.1161528  53.6283159  83.7620354  13.2963300
  53.2797527  83.7188911  14.1867638  54.4328737  83.2444763  13.3287263
  55.0032377  15.4088795  24.8077250  54.9556065  14.4592190  24.9177599
  55.0240183  15.5394042  23.8596940 109.5894241  89.2572212  41.0393715
 110.4970741  89.3351555  40.7455587 109.0689468  89.3906593  40.2471972
  22.1434140  86.5972996  56.0645342  22.4723148  85.7067394  55.9422159
  22.8630471  87.1598244  55.7782984   5.8618277  91.2966442  27.9968143
   6.3084477  90.7744789  27.3304057   6.1886227  92.1862888  27.8627658
  36.1727595  88.7799931  54.9334717  36.9590187  88.6864948  54.3956184
  36.4252424  89.3953228  55.6218433  38.2962060  84.1712093  46.0491514
  37.7513814  83.6264515  45.4811430  39.0029168  84.4777012  45.4809475
  28.9720273  57.7085161   5.6241739  28.6640263  57.1184635   4.9362737
  29.7226405  58.1579733   5.2358437  50.2930164  92.4147034  35.9934163
  50.1531696  92.2080708  36.9175243  50.8387566  91.6988754  35.6678510
  27.7133942  94.9389648  55.3961897  28.4311914  94.3130207  55.4920292
  27.7430630  95.1982403  54.4752502  47.7221012  45.9662390  18.9534783
  47.3266268  45.6509590  18.1408095  48.1816673  46.7671204  18.7012362
  34.4698572  86.9525909  42.1634293  35.1493216  87.6251125  42.2110939
  33.6502481  87.4308777  42.2887850  33.8425159   4.0598091  44.5336008
  34.3704176   3.6331210  43.8587046  33.0092788   3.5889119  44.5192575
   7.2397470  94.0164280  23.9852810   8.0364454  93.6792278  23.5756516
   6.5415603  93.4539223  23.6500978  13.4953618  78.5436964  15.3968394
  13.5722792  79.2170000  16.0728395  12.8032851  78.8634062  14.8180068
  61.3213396  77.1359921  44.4195557  60.3839254  77.3146009  44.4942999
  61.4667273  77.0077181  43.4821939  61.1148548 101.9108295  40.0028944
  61.4852762 101.1186314  39.6137309  60.5895996 101.5937138  40.7375860
  41.0684443  73.3598280  10.9991670  41.6114616  74.1277122  11.1772537
  41.3444090  72.7150393  11.6505706  83.3665371  68.5220242  88.7381554
  84.0129948  68.9188623  89.3219757  82.5774288  69.0498304  88.8604641
 109.2666817  25.1003361  82.2867012 109.4141865  24.1584849  82.3726940
 109.3531609  25.2716780  81.3489437  69.1329813  63.5091400  35.9722161
  68.4847021  62.9415798  36.3891578  69.4560432  62.9986429  35.2297497
  54.2204905  92.3109722   1.9631100  53.9530468  93.2166958   2.1191993
  53.4726763  91.9139957   1.5165463  30.6882405 100.7746601  43.4907341
  31.2039995  99.9894619  43.3072090  31.0825324 101.1405659  44.2824888
   7.4695957  54.1976595   5.5579871   6.8182302  54.8568916   5.7974911
   7.0224130  53.3612108   5.6869006  27.5449657  11.9474804  77.3289585
  27.8549266  11.9451487  78.2345772  27.9863572  12.6955187  76.9266605
  38.9825702  74.0068054  45.3600311  38.5017490  74.1649580  44.5476103
  38.4803867  73.3252859  45.8067656  27.6872015  95.7315350  31.4641762
  27.6796746  94.8120499  31.1982250  28.1280255  96.1850739  30.7456994
  18.7557089  68.3072758  28.4116578  19.2370558  69.1228533  28.2724833
  18.1607747  68.5009146  29.1360784  29.8701429  81.2497520  53.7234259
  30.0086641  80.4545689  54.2379427  30.6269693  81.8001366  53.9247084
  18.1095529  98.2885647  80.1591301  17.7599919  99.1452312  80.4044247
  18.3773482  98.3916950  79.2459583  88.3657837  23.6402702  74.4244766
  87.5035000  23.2635093  74.5998430  88.1818771  24.5314693  74.1275311
  38.1863499  74.0205336  19.9453068  37.8766584  73.9988708  20.8507633
  38.0183983  73.1385088  19.6135592  22.1091747  87.5416565  46.7152739
  22.0972514  86.9687366  45.9485579  22.3872948  86.9740582  47.4341011
  31.6585422  84.8669624  22.8795242  32.3577332  84.9198246  23.5311151
  31.0898232  84.1646004  23.1949258  85.8644772  91.5457821  22.3702955
  85.6363201  92.1173096  21.6371346  85.8914757  90.6677341  21.9901204
  25.1031542  94.0982056  30.5596304  25.9225893  93.7554073  30.2029133
  25.2628565  95.0357246  30.6682491  25.9685564  87.5998878  31.3413382
  26.3826537  88.0714035  32.0641303  25.8823562  86.7013073  31.6597199
  40.3615808  56.8537235  38.8317943  39.7841883  56.2702608  38.3394337
  40.3961325  56.4722204  39.7090030  57.8869820  51.0466814  29.9214196
  58.5381269  50.4116201  30.2196431  58.1806517  51.2975025  29.0455890
  53.4115124  83.3186626  25.6419992  53.5393238  83.6052227  24.7376895
  53.8941622  83.9577484  26.1662555  39.8533821  89.9810219  60.4241276
  39.1713023  90.6301594  60.5962372  40.5825949  90.2453423  60.9850359
  43.3977175  70.5069733  15.5331826  43.5943985  69.7877312  16.1333799
  44.2359447  70.9525681  15.4105043  42.5611162  60.7336140  34.1811085
  41.9536114  60.0001907  34.0848970  43.0221653  60.7742214  33.3432460
  42.8685379  88.4551144  12.8042817  43.5266066  88.9761543  13.2643855
  42.2506571  89.0998363  12.4596226   7.8336978  85.3492260  20.1472020
   7.7879578  85.1420212  19.2138195   8.6255550  84.9064064  20.4523277
  13.1424916  77.9331923  36.2183523  13.9032030  77.6194143  36.7073250
  12.7049422  77.1362877  35.9188175  16.0909748  23.0373859  86.8976879
  16.4019454  22.7667642  87.7615643  15.8118916  23.9451718  87.0171356
  38.8850141  75.9731865   2.0072120  39.8194313  76.1799908   1.9890311
  38.5343671  76.5113401   2.7169073  30.4547739  53.9613152  26.3957334
  29.9648881  53.1433821  26.4807510  29.9197173  54.6096563  26.8535542
  63.6852932   9.8104584  16.8460369  62.9706478   9.1941959  16.6856265
  63.5153484  10.1509345  17.7243459  52.9016447  64.0840292   8.6257356
  52.7135420  65.0214911   8.5808289  52.8197289  63.8675308   9.5545250
  19.4653404  86.3881207   1.0239065  19.6203756  85.4515743   0.9010828
  20.3057337  86.7987061   0.8204767 110.9584332  70.5421829  36.6646600
 110.2399635  70.3027630  36.0792398 110.5300045  70.9634161  37.4098063
  28.7180877  79.8564959  44.9801970  28.5482168  80.5478096  45.6200981
  29.1671062  79.1737700  45.4786921  15.0215142  26.2825109  91.4626905
  15.9103672  26.5186264  91.7280574  14.5261233  26.2564041  92.2813092
  41.6516304 102.1943283  46.5317965  41.6617346 101.2371826  46.5283442
  41.1218452 102.4255085  47.2947598  10.6235397  20.6880569  70.4474068
  10.6103063  20.8572292  71.3894463   9.7415370  20.9129930  70.1512527
  68.9390469  75.4693937  14.4590366  69.7195196  75.9198856  14.1363168
  68.3451176  76.1743069  14.7170663  18.7227905  67.4030256   7.5469786
  19.2183995  67.5855732   8.3452761  19.2018330  66.6894770   7.1255565
  83.7886198   0.6747979  44.4666100  84.2771347  -0.1104956  44.7133875
  83.1069143   0.3566713  43.8747454  51.8515539  23.0382299  29.7759008
  51.5381765  22.6283288  30.5821323  52.3583126  22.3530054  29.3401384
  32.3977804  62.7045918  29.0762258  32.9065156  62.4005890  29.8278952
  31.6193795  63.1074381  29.4609761  39.1223168  74.9435234  53.2766628
  39.6163177  75.7631397  53.2561302  38.3442926  75.1194859  52.7475643
  18.1513703  68.2925940  55.9430838  18.2037997  68.4211826  54.9960089
  17.2169089  68.1817532  56.1183739  78.8882732  47.5783110  16.0195315
  79.4534969  48.3238649  16.2217796  78.3070469  47.8985786  15.3297246
  66.7775202   7.8969032   4.5719558  67.5589514   8.4496188   4.5618597
  66.1618042   8.3629477   5.1375782  54.0663862   9.1879553  86.0032082
  54.3298292   9.1204298  85.0854492  54.4458532   8.4137237  86.4189053
  40.0917292  81.8105030  21.0763812  40.4915667  82.5964260  20.7039785
  40.0810909  81.1821079  20.3544116 111.2267303  39.0822959  89.5520115
 111.1011314  40.0310946  89.5674706 110.6933498  38.7582278  90.2777672
  34.8260307 101.4151955  37.3549175  33.9561248 101.0995960  37.1101880
  34.6957970 101.8451977  38.2001209 101.0566330  60.4089737  86.0205936
 100.3523350  60.2116966  86.6380596 101.6052914  59.6246290  86.0245228
  61.4072316 105.6439311  33.3165050  60.7964508 105.2146481  33.9155817
  61.0270111 106.5094473  33.1663656  25.8676100  67.7419901  46.3683271
  26.0391688  68.2258558  47.1762085  26.7307925  67.6243353  45.9717083
  23.3973098  97.4862194  36.1016202  23.1169462  96.9200897  36.8207359
  24.1141176  98.0031872  36.4692640  47.0058250  83.9066410  40.4385710
  47.5246668  83.1516361  40.7160711  47.0142221  83.8646030  39.4823337
  74.1263771   6.4652520  49.6882248  73.7154436   6.3438177  50.5441570
  74.5651579   7.3136097  49.7513962  49.8985767  91.7157555   8.4969640
  49.7161293  90.8113766   8.7520039  50.7065105  91.9369030   8.9601779
  21.6978717  91.0704422  76.0797787  21.9487906  90.1561356  75.9481382
  22.4815917  91.4841938  76.4414740  51.6479349  89.7673798  35.3740239
  51.7602062  89.0540600  34.7456861  50.9240866  89.4831944  35.9321666
  66.0479927   2.8477541   0.5998952  65.7369041   2.1987712  -0.0311983
  66.7207575   3.3380112   0.1273879  37.6991653  71.1638355  24.5974874
  37.7912855  70.6956196  25.4272604  37.5798130  72.0791245  24.8509145
  49.8906136  68.9189768  17.1951020  49.9036837  69.8515844  17.4102902
  49.6120548  68.4903240  18.0043578  58.1645155  80.8147526  13.6120760
  58.9435339  81.0695744  13.1176829  57.5971174  80.3950691  12.9654264
  50.0002766  94.5848942  22.8993249  50.1277161  93.8589573  22.2885752
  50.3908443  95.3397369  22.4589896  79.6740437   1.7744569  57.6088905
  79.7857952   0.9481040  58.0788755  80.4898930   2.2504415  57.7639961
  15.9252012  34.0107608   9.4800401  15.3792393  33.3214498   9.8582065
  15.7063997  34.7938013   9.9852169  17.8584254  65.2859545  28.8904691
  18.4218812  65.8612967  29.4078946  17.1528864  65.0402737  29.4888735
  46.6048098  97.8651428  22.6285267  46.6363764  97.3800564  21.8039513
  46.7955828  97.2096634  23.2994795  64.9625635   7.5933945  27.7973866
  65.2747679   8.4671718  27.5622869  65.7573986   7.1041638  28.0097914
  19.7034395  79.6016455  41.2972975  19.3841588  78.7153339  41.1277771
  18.9107478  80.1353645  41.3521910  29.6116567  48.0271339  88.2964802
  30.4161477  47.6530170  88.6557293  29.0569806  47.2693348  88.1112671
  61.1567259  53.0852127   8.1651646  61.4446640  52.2000217   7.9420924
  60.2382421  52.9826403   8.4143597  12.4911118  82.6468658  28.2710814
  13.3190632  82.7883339  27.8120422  12.7378285  82.1880817  29.0741229
  88.3447075   1.4001304  12.2343624  87.7447128   0.7115251  11.9478917
  87.7791023   2.1511781  12.4139416  25.2525640 101.9767380  24.0287781
  25.4482579 101.1420155  24.4544220  24.3971944 102.2284126  24.3769670
  90.6781578  16.0209918  72.2715664  91.5537739  15.8841646  71.9099045
  90.2216625  16.5352476  71.6056967  11.9359469  15.3971028  77.4918652
  12.0397949  15.7125282  76.5941191  12.4767280  15.9869897  78.0170536
  62.3006725 105.3246689  44.9684572  61.9785452 106.0243034  44.4001532
  61.7065573 105.3330231  45.7189178  56.0824966  74.5227003  25.7515717
  55.7653236  74.8882437  24.9257326  56.1751556  75.2804708  26.3290071
  20.3820491 100.6771374   7.1118706  20.2470684 101.3912487   7.7348167
  19.5060146 100.4794598   6.7806333  25.8651209  94.1488457  23.6521125
  25.1132917  94.3356133  24.2143440  26.1308813  93.2617760  23.8943982
  65.0195551   1.7802306  28.0046654  64.9159908   2.6974016  27.7510834
  65.4240465   1.3652954  27.2427940  94.3226910  19.5584679  24.2956734
  93.9389229  19.0734780  23.5650969  93.6479282  19.5426726  24.9744081
  71.9473934 101.6458702  38.9744854  72.4005413 102.1613884  38.3073092
  71.0522699 101.9849682  38.9721632  31.9451714 101.1221313  11.9148648
  31.9862723 101.0796070  12.8702354  32.7698803 101.5344238  11.6577649
  15.1976860  29.5382690   4.1197747  15.6184971  28.8316631   3.6300212
  14.6329558  29.9704814   3.4790692  33.5753417  53.0885887  37.5828433
  33.6969638  53.9215851  38.0384278  32.8792334  53.2616472  36.9490337
  71.6349268 104.5613480  49.6852160  71.1938524 103.7820435  50.0234175
  72.5556040 104.3071270  49.6222878  58.2033777  90.9379864  48.3306980
  57.5267029  90.6953239  47.6986742  58.4423828  90.1134682  48.7541103
  68.2231951  18.1118262  29.5433402  67.2837830  18.1801212  29.7138381
  68.2933664  17.4590397  28.8467932  23.6583638  76.4116859   6.2063146
  23.3738637  75.5848646   5.8168751  23.4304714  77.0744562   5.5543691
  62.0907116  18.0536532  33.8912821  62.6950169  18.7022042  34.2524314
  61.2860537  18.1683898  34.3968487 105.8116436  14.6430957  64.6241522
 105.2267933  14.1522789  64.0468407 105.2275181  15.1968098  65.1422596
 101.2535000  33.5606527  76.2813044 100.5855083  33.9315200  76.8579149
 101.8413162  34.2925048  76.0939550  89.5415974   4.0287030  25.0209069
  88.9110661   3.7655985  25.6913090  89.3995667   3.4115535  24.3031406
  86.7971992   6.8540990   1.8721519  86.7846584   7.6473445   1.3365811
  86.0365963   6.9410121   2.4467561  52.1319056  67.2139406  11.8079650
  52.8395319  67.0097542  12.4193609  52.1158075  68.1702900  11.7710054
  71.3408184  17.9884851  42.8099489  71.5726948  18.3095002  41.9385052
  72.1816540  17.8085995  43.2305002  44.1145754  37.1417522  21.1131573
  44.6941137  37.8317142  21.4361382  43.2325077  37.4620390  21.3018632
  36.0031605  50.3330898  72.2206640  36.3151479  51.2326527  72.3190641
  36.0642719  49.9608040  73.1003809  20.3590894  99.2712593  29.7486377
  20.1344943 100.0329208  29.2141724  19.8271191  99.3676758  30.5385375
  47.8015041  11.6113579  35.5712652  46.8804169  11.3513994  35.5554032
  47.7939081  12.5354159  35.3216791  33.1202292  76.8885708  19.5816064
  34.0287375  77.0297766  19.3153250  32.9446578  77.5859165  20.2133608
  83.6038208   7.5207269   7.5759518  83.3816433   8.3351260   8.0271965
  84.4247055   7.2393328   7.9799259  58.1048965  96.4736557  37.3221040
  58.4883213  97.3466110  37.2374463  57.5733471  96.5215588  38.1167078
  93.1651743   0.9238977  11.6245055  93.8075502   1.5864343  11.8787134
  93.2659967   0.2300710  12.2761738  22.1562219  90.4380512  24.5263672
  22.9290342  90.4430103  25.0911379  22.3735714  91.0436821  23.8177013
  62.8728485  93.5558510  32.1816015  62.1466494  93.3602238  32.7737164
  62.4945450  94.1382313  31.5228510  10.6657600  71.8692732   7.9467314
  10.4539979  71.1076403   8.4864551  10.8496869  72.5657940   8.5770196
  69.6764183   8.5651451  38.3920288  69.3903923   9.2280740  37.7635789
  69.0129089   8.5867542  39.0816092  36.3896394  80.5500603  31.1764932
  35.5211902  80.9203625  31.0186958  36.7225432  80.3398895  30.3040028
  61.7532444  95.3606033  49.9323463  61.2451839  96.0479546  50.3632164
  61.9165754  94.7161198  50.6209660 110.0471878  12.5446761  24.9541569
 110.6048679  11.7674410  24.9877787 109.1798878  12.2076297  24.7295976
 111.3924503 105.5672932  37.5097919 111.1930466 105.4383659  36.5825129
 111.7092705 104.7145081  37.8074718  52.8907728  82.5142097  22.5980163
  52.2147560  81.9469929  22.2272110  52.7024126  83.3798599  22.2355175
  82.2663307  27.6169205   7.3833877  82.1585846  27.9784966   6.5036803
  81.8491173  26.7564559   7.3414308  55.8663130  74.3717670  67.2851849
  55.3403521  73.6760426  66.8907690  56.2392235  74.8420906  66.5395546
  99.3559742   2.3023200  71.6505384  99.9667454   1.7103836  71.2114477
  99.7966766   3.1519717  71.6402626  75.9522772  14.7030210  16.0854030
  76.8904305  14.5403063  15.9873223  75.8986568  15.4263282  16.7100501
  47.9354525  89.4109249  17.9088449  47.2926712  89.6178150  18.5872698
  47.4096727  89.1922855  17.1394372  73.5739994  16.3421786  47.7520418
  74.1508293  15.6106532  47.9719687  73.1057882  16.0511327  46.9695473
 110.5196762   1.5882546  22.1774173 110.7330608   0.7820359  22.6472139
 109.7783184   1.3516243  21.6200733  93.5658836  22.6618528  19.5049953
  94.1353226  23.3643007  19.8189032  93.2539177  22.9687953  18.6537051
  77.5692415  16.9540942  17.7588069  78.0915642  16.2716973  18.1804073
  78.1058407  17.2453105  17.0215905  37.4733329  82.7134323  20.7685161
  37.8120995  81.8511009  20.5279779  37.1960282  83.1018066  19.9387586
  36.0761356 103.5931301  54.3216085  35.9621000 103.0678177  55.1136112
  35.3424120 103.3425426  53.7602806  35.1172066  87.7183914   9.6948797
  34.3325591  87.3856354  10.1305771  35.8390808  87.2417450  10.1046741
  35.5397964  77.8976107  64.8159266  35.5357575  78.6218739  65.4417515
  35.8522248  78.2880688  63.9997387   7.8153992  80.2694607  26.0793900
   7.9094207  80.9579372  26.7377067   7.4991316  79.5107174  26.5698171
  55.2946138 104.2074680  67.6427031  55.1226711 103.4409046  67.0958567
  55.1060343 104.9542618  67.0743942  56.6441202 101.4957809  28.3718562
  56.0876894 101.2301350  27.6397014  57.2051239 102.1816444  28.0097795
  73.0646801  95.9116459  39.7819304  72.6301765  96.6437721  39.3444133
  72.3569965  95.3000355  39.9852943  30.5927181 105.0156593  25.3689384
  30.9973526 104.3292904  25.8994198  29.8395467 104.5894909  24.9598622
  34.7551441  55.1977730  19.8861587  34.4823980  55.5382442  19.0341496
  34.8013663  55.9704685  20.4492211  80.9142971 101.3951874  39.5881128
  80.2782154 101.8608665  40.1310396  80.4562855 100.6022358  39.3093824
  61.0781145  39.9842167  32.5997901  60.8319902  39.3637252  33.2858253
  61.9605017  39.7180152  32.3414111  84.2746639  13.1280351  53.0312634
  83.5391903  12.6588929  53.4252310  83.8922787  13.9430106  52.7059555
  25.0440359  80.8233929  55.5322170  24.9837661  81.6713333  55.9722185
  24.2383385  80.3684902  55.7774687  63.4096575  99.6286678  51.9642258
  62.7687263  99.6870136  51.2556839  63.8981771 100.4502583  51.9135523
  55.3315449 102.3957920  44.7980356  55.0157881 101.9570065  44.0081024
  55.2926874 103.3283615  44.5857763  35.5787611  99.8690319  41.1556482
  35.1268530 100.5368233  40.6398201  36.3937306  99.7095203  40.6796074
  38.5418224  73.5610723  38.0394626  39.2713547  72.9507685  37.9320097
  37.7723122  72.9999542  38.1355667  56.7197895  69.3890238   3.8767940
  57.4978113  69.3893147   4.4343874  56.3349485  70.2564430   4.0021586
  28.3835196  93.9703560  63.0296040  27.6610923  94.5820332  62.8875351
  28.4299064  93.8711929  63.9805269  47.2568321  76.2979698  39.5552707
  46.5638304  75.7237864  39.2292356  48.0672312  75.8989382  39.2386413
  59.0926170  97.0322227  72.3014927  58.3231878  97.6012230  72.2805309
  59.1389894  96.7253685  73.2069921  85.6484985  49.5920467  85.7362843
  85.0538254  49.9830294  86.3763809  86.4855671  50.0309372  85.8877087
  87.8375149  15.7487071  19.7139990  88.1234455  16.2108171  18.9260066
  88.6240005  15.6910956  20.2565384  44.3417168 105.3103447  43.1491089
  44.0433264 104.6251488  42.5510216  43.7970543 105.2016449  43.9287043
  36.4870882  49.7873211  32.9004049  36.0825443  49.0396309  32.4604750
  35.7872128  50.1551676  33.4399343  66.4270449   7.6994061  53.8068771
  66.2432814   7.3392028  54.6744680  66.9922638   7.0478636  53.3918428
  68.9299011   3.7504959  30.6659317  68.3960772   3.1964687  31.2354207
  68.3550453   3.9621550  29.9304199  31.8915892  97.3854256  35.6540084
  32.2511339  96.5137863  35.4890823  31.7629933  97.4160194  36.6020370
 103.1391144  54.1688156  84.4040298 103.9284229  53.7056494  84.1235065
 102.4919987  53.9710712  83.7269974  86.7342091  92.2292900  27.1721125
  86.2874603  91.6189957  27.7587914  87.2294998  92.8037071  27.7560306
  24.3813896  77.5847483  49.6895695  23.8466167  77.8227377  48.9321947
  23.9598203  76.8018436  50.0439262  84.3381500  41.9865084  82.7594376
  84.1414833  42.8767920  83.0508900  84.7478390  42.1002436  81.9018555
  49.8758602 101.5507221  27.2014809  49.2261314 101.9811535  26.6457748
  49.8278904 102.0205688  28.0340528  65.3221178  88.8052082  37.2640514
  65.8237457  88.8256741  38.0790257  65.7431507  89.4600487  36.7071438
  36.1810184  84.0791988  18.2218838  35.3307986  84.1057110  17.7829564
  36.8004394  83.8462734  17.5302958  79.2195654  17.4558616  69.8782969
  79.4226742  17.5192523  70.8115530  79.6045446  18.2441175  69.4953156
  59.8356009  66.4653873  52.8588438  59.2604303  67.0948839  53.2937431
  60.7144737  66.8283606  52.9686356  28.7368107  63.8621140  89.7969818
  29.3423939  63.1347227  89.6541309  29.2843246  64.6449518  89.7367859
  88.4850502  94.1733837  28.3687782  88.6532688  94.3346405  29.2971802
  89.1050053  94.7410488  27.9109049  96.0352802  95.6607246  49.9236584
  95.7523727  95.8228970  49.0237141  96.5680122  94.8674297  49.8679829
  34.9399781  71.7070675  41.3500166  35.0496626  70.9909630  40.7244015
  34.0496349  72.0238400  41.1977816  45.4698515  27.8688955  90.4336357
  46.0945177  28.5934448  90.4011536  45.1464176  27.7910948  89.5360947
  23.2001400  76.9241238  89.1618633  23.2041121  75.9669828  89.1518211
  23.3038735  77.1737146  88.2436180  30.9536099  56.2134457   8.3364904
  30.1619482  56.6243935   7.9891807  31.6512203  56.5021801   7.7480972
  94.6336937  23.0080366  32.8918076  94.9742985  23.8716698  33.1249404
  94.0967751  23.1640601  32.1148872  57.2425461  73.2426453  64.5638180
  57.5703573  74.0887499  64.2590618  57.7802372  72.5977993  64.1041517
  40.2680969  92.0861816  34.4766688  40.2908421  92.0713139  33.5198545
  41.1571169  92.3308372  34.7336078  78.0538845  11.4650917  53.8959122
  77.4603224  12.0541751  54.3616343  78.3341312  10.8341253  54.5589209
  44.6189165  89.6545792  36.7570662  44.3604660  89.4136620  37.6466680
  45.4935694  89.2801666  36.6520667  96.6677380  14.4147336  47.9670095
  96.7170143  14.5968711  47.0285892  95.7328510  14.3054485  48.1410170
  85.6417751   7.4446803  70.7671452  86.0715961   8.2353002  71.0933495
  86.2549114   6.7379725  70.9692907 107.5957680  60.8422613  54.6331072
 107.8841400  61.7094851  54.9176979 106.6876411  60.7825470  54.9296999
  33.9728951 103.2872200  20.5957866  33.7799478 103.4861946  19.6795917
  33.7531853 102.3604584  20.6910205  73.3683538  43.2355070  17.6872408
  72.9860449  42.5727654  18.2624328  73.0641937  42.9969072  16.8115771
  45.3378487  89.9095345  23.6778426  44.7905254  90.2940845  24.3625259
  46.1723661  89.7299957  24.1109371  46.1105061  88.2749748  13.4635234
  46.6476822  87.8223610  12.8132856  45.7995224  87.5796413  14.0432072
  49.6694851  83.6616802  48.8028336  48.9729786  83.9551735  48.2154942
  50.4676914  84.0429115  48.4371042  71.9835424  14.9826062  30.4647398
  71.9570160  14.5133686  29.6308661  71.6259623  15.8475888  30.2643061
  62.3990297  25.1569080  68.4600449  63.1487608  25.0785899  69.0499640
  61.6399431  25.1985765  69.0416670  27.7102423  67.7336645  84.5886898
  27.9859567  66.9817686  84.0644073  27.7591753  67.4255323  85.4936123
 101.7479706   2.9262394  39.3415427 102.1525574   2.4444441  38.6201453
 102.1719646   2.5814506  40.1274061 109.5642185  65.5628014  87.8904057
 109.8194695  64.9423409  87.2076893 109.7376919  66.4233971  87.5089550
  73.9428425   5.5335206   6.8044281  73.3931637   5.2692676   7.5421649
  74.3509960   6.3507169   7.0904917  80.8484173   1.7124465  47.5133514
  80.5308819   2.5695759  47.2292137  80.0566006   1.1830100  47.6079988
  79.6564150   6.5806442  56.5418339  80.5371952   6.3311279  56.2622070
  79.0988255   6.3707823  55.7926464  24.7697926  92.7284241  36.4713335
  25.4765010  92.7987194  37.1130919  24.8965907  93.4799004  35.8921599
  63.9035177   7.8361630  34.1603804  64.2873859   7.2969490  33.4689140
  62.9767609   7.8982162  33.9290595  49.7936535  77.7103758  39.2348289
  49.4407463  77.7564621  40.1234007  49.0372086  77.8629255  38.6684752
  24.1754389  66.7117929  13.4851801  25.1127243  66.9005585  13.4393704
  24.1237640  65.8582258  13.9152825  21.2729716  96.4454079  49.9459314
  21.2740993  95.4912663  49.8694992  22.1983552  96.6816616  50.0098181
  98.5822296  59.4435167  16.5322328  97.8976917  58.7843513  16.4176428
  98.4764576  59.7442627  17.4347818  62.4036741  24.4816732  41.8198824
  62.9407024  25.1849127  42.1849728  61.6138363  24.9218607  41.5058470
  14.0736580  81.3668251  31.4449430  14.9349105  81.2460136  31.0450912
  14.2524064  81.8298054  32.2634339  64.4536114  79.0329790   5.3815055
  64.0636778  79.2182446   4.5271862  64.2000103  79.7774839   5.9270620
 110.4724203  35.5738975  92.1539353 110.2977810  35.8217289  91.2460175
 110.3261719  34.6282055  92.1764399   4.4653127  52.9456663  16.8884695
   5.2241492  53.0406475  16.3128150   4.7229341  53.3851528  17.6988471
  67.0448971  21.1372375  44.7167540  67.9859257  21.3114738  44.7351980
  66.8881083  20.5870032  45.4841471  20.2048016  94.9292278   5.9281909
  20.9330153  94.9975109   5.3107190  19.4540095  95.2858639   5.4534769
  82.2751141  23.0049586  73.3242321  81.7419815  22.7550197  72.5695610
  81.6393375  23.2620025  73.9920282  85.5030537  32.8840566   5.2576149
  84.7535038  32.3011279   5.1368171  86.1197376  32.6263785   4.5723897
  50.2820301   2.0774087  91.6764355  50.1934528   1.5503559  90.8823299
  49.5997763   1.7467113  92.2607231  40.6635141 103.6448956   3.6792171
  39.8720169 103.2521152   3.3111334  40.7412720 104.4888401   3.2343024
  76.5338373   4.4605413  26.2352729  76.1599207   4.9170566  26.9889379
  75.9568930   4.6889985  25.5064559  92.4802971  26.4201522  28.1925464
  92.0255375  26.6610265  28.9996433  92.1066570  25.5726695  27.9508901
  56.9355774  68.2573986  51.4990997  56.0127306  68.3629656  51.2679148
  57.2536516  67.5740910  50.9090614  83.9607525  19.1137505   9.3132573
  83.9522171  18.3971524   8.6787140  84.6298027  19.7151899   8.9863402
  60.8615303  23.1389689  21.9768333  61.2664747  23.7715316  21.3834405
  60.6152439  23.6545801  22.7447653  31.6989183  76.4433670   7.4417090
  31.4274216  75.5933475   7.7880996  31.2779284  77.0820332   8.0171269
  60.0013494  91.0148811  45.1089001  59.2397165  90.4560852  45.2635098
  60.2360439  90.8524704  44.1952419 108.4843063  85.5913258  38.3076692
 107.8952599  86.1227608  37.7721071 109.1085434  85.2222252  37.6829100
  35.0412130  77.5644684  16.9230437  35.3997898  77.0806551  17.6670730
  34.0922737  77.4879694  17.0224977  54.7197104  94.9026585  15.3239238
  54.9672937  94.3660164  14.5709598  54.1472769  94.3376350  15.8428669
  45.6237555  77.5184059  61.7121220  46.0520649  78.2167912  61.2171030
  45.1673317  77.9722309  62.4206114  16.0464799  66.3562298  73.6093664
  16.1524689  66.9020891  74.3884897  16.3198543  66.9181156  72.8842592
  25.4434109  71.6509676   4.5314953  26.1261129  70.9969330   4.3818557
  25.6027341  72.3201036   3.8658369  60.3894091 106.1449718  39.6038342
  60.6549883 105.2536583  39.3774223  60.4292870 106.1712265  40.5598402
 108.2917213  56.9785976  89.1305256 108.5547352  56.1288166  89.4839859
 109.0025520  57.2216511  88.5373211  57.1559477 104.2538261  37.9603219
  57.0565605 104.9656296  38.5925341  58.1023788 104.1597366  37.8524065
   9.6283573  96.5686035  51.2770557  10.2590716  96.0785389  50.7495403
   8.7994719  96.1072636  51.1492062  48.3905315   7.1153140  10.8961987
  48.1923199   7.9523700  10.4763389  48.0830812   7.2202486  11.7965841
  11.7531610   0.7970039  89.3007278  12.2478104   1.0102277  88.5094738
  12.3577726   0.9840481  90.0188446  36.0391927  97.1234608  28.5019541
  35.0837159  97.1805573  28.4960222  36.3250780  97.8323555  27.9257917
  45.5949116  97.0240021  63.7835455  45.8595657  96.2429142  63.2976675
  46.3489819  97.2291946  64.3362665  36.0975599  77.0784903  57.7065849
  35.6704950  77.7277422  58.2654381  35.5129147  76.9885778  56.9540310
  23.1361794  87.2537994  65.2521896  23.1091118  88.0877399  65.7212830
  22.8519368  86.6066074  65.8976173  43.1380272  72.4280500  29.4012070
  42.3933506  73.0170250  29.5228815  43.2419205  71.9951105  30.2485561
  37.7918720  89.6894932  25.8002496  38.3678484  89.4242954  25.0832033
  38.2232118  90.4529381  26.1840963  49.1759205  80.9883785   7.0173991
  49.0848875  81.3243961   6.1257488  48.6145401  80.2134132   7.0397931
  83.3395576  12.8692377  49.9417114  83.0613518  12.0868945  49.4655037
  84.2845535  12.7609789  50.0489283  87.3933521  12.0608012   0.5819115
  87.0263210  12.4087302  -0.2307812  88.2336333  11.6827171   0.3226551
  29.8249817  95.6427765  11.1532009  30.7004976  96.0037422  11.0138857
  29.9668765  94.7012138  11.2509441  39.4693327  61.3253784  46.0587692
  38.8024020  61.7515707  45.5204439  40.2538776  61.8597889  45.9357643
  20.2752733  97.1866226  28.1960440  20.0950289  97.8110123  28.8988090
  19.4355857  96.7552376  28.0377340  17.3086178  54.5203352  73.3796787
  17.1857560  53.7011099  72.9000950  17.6638186  54.2510271  74.2267561
  62.8405523  82.7362061  30.5809450  63.5628510  82.3780251  31.0969138
  62.0666647  82.2689819  30.8956337  31.9022346  94.8597145  61.4965677
  31.3289380  94.0984440  61.4069986  31.3051248  95.6073570  61.5236187
  87.2940159  20.6884432  14.1861367  87.3435974  20.1583481  13.3906674
  86.3999653  21.0303092  14.1908073  13.3515990  36.2560630  66.0130787
  13.6674941  35.5140448  66.5286875  12.8566527  35.8570766  65.2974892
  86.3784122  10.0749803  36.7307138  86.1135483   9.1860265  36.4944029
  86.4488411  10.0581717  37.6851726   0.3038596  55.5884361  37.4606967
   0.4945267  54.6650314  37.6256371  -0.1075258  55.8960438  38.2683945
  78.5872936   3.6404058  42.7372885  79.0351009   2.8667051  42.3951054
  77.6561689   3.4365380  42.6497030  61.2685347  58.0838346  19.8235905
  62.1147442  57.8094864  20.1769996  60.7994080  58.4427643  20.5767965
  67.5391626  85.8589649  38.1065035  66.7869711  85.2672291  38.0896282
  67.6693964  86.0543919  39.0344453  93.1648064  53.0991507  27.0652151
  92.9675102  53.6358833  27.8328252  92.3958969  53.1934690  26.5029693
  48.0854797  88.5238647  64.3922615  47.7342749  88.0943871  65.1722908
  47.8661871  87.9312038  63.6733055  25.1542640  92.6945114  46.4396143
  25.6781530  92.0759678  45.9305191  24.3385649  92.2268009  46.6188097
  56.9185209  68.4225035  90.4789639  56.0174608  68.1417942  90.3191948
  57.3881102  67.6143599  90.6854057 108.4809971  27.2337532  34.8138189
 109.2363834  26.9068813  35.3024650 107.7525425  27.1759462  35.4320788
   6.6581357  72.9536819  87.3793316   6.4794785  73.7252951  86.8418217
   5.8080930  72.7191305  87.7516842  44.2222214  99.1642761  25.8077693
  43.8237238 100.0231457  25.9484029  44.8066950  99.0459251  26.5565133
  61.9265938   2.4467838  39.9110842  62.6194096   3.0078858  39.5626497
  62.2279167   1.5557949  39.7333860 102.0982647  37.3089933  42.7916527
 101.4799118  36.6447878  42.4871731 102.8242397  37.2635174  42.1694660
  52.7795267  27.9195499  43.8565350  52.4621916  27.2155595  43.2909107
  53.5123444  27.5310206  44.3342924  75.4603481  91.8456936  50.5556583
  75.0635004  92.3669720  49.8577976  75.4251862  90.9456158  50.2318478
  84.6639633  18.7426639  59.1539335  84.9625301  19.5954096  59.4700241
  85.1428795  18.1083953  59.6873856  25.9103632  94.7753048  12.3365736
  26.1294818  95.1040268  13.2084477  25.6675935  93.8605022  12.4795353
  94.5133591   4.8548725  33.3857822  94.4427204   5.7521540  33.0600119
  93.6221886   4.6246040  33.6485267  84.2132759  15.5775368  42.5828266
  83.5619926  14.9664569  42.2383738  84.5822430  15.1301932  43.3443880
   3.6751074  16.0694468  47.8164387   3.5039541  16.5904295  47.0318890
   4.3677831  15.4628611  47.5547409   8.7837213  22.9442883  58.9171886
   7.9669785  23.4432721  58.9039040   8.5054886  22.0313787  58.9907742
  71.7612219  23.9561939  49.0536547  71.0772038  23.3374047  48.7978268
  71.3689232  24.8180747  48.9140224  88.4757137  84.5363235  23.9576626
  88.0809498  85.2957535  24.3862200  88.2824421  83.8038158  24.5427299
  10.3128028  69.8025370  89.8997498  10.2371514  69.8386717  90.8532715
   9.6627694  70.4302025  89.5839500  11.1871743  97.5014019   8.7917089
  11.6108274  97.8307056   7.9990494  10.3318143  97.9309082   8.8022101
  88.8562202  15.1026404  30.3897357  89.6918201  14.7154438  30.6506467
  88.2129669  14.4109154  30.5445957  59.3598921  82.6895354  -0.1601711
  59.8602445  81.8735645  -0.1517597  58.8201578  82.6476739   0.6292328
  57.2010422   3.4407371  37.3109055  56.4614868   3.9034250  37.7048683
  57.0884037   3.5673407  36.3688254  53.1912033 106.0709156  31.8913245
  53.9187519 105.4988669  31.6470671  52.7202980 105.5840005  32.5676346
   6.1248642  65.5464935  28.2524109   6.9824034  65.1977444  28.4957862
   6.0594076  65.3859806  27.3110366  37.8556204  99.8466110  65.1065016
  37.1728325 100.4938602  65.2828741  38.0450153  99.4593143  65.9611177
  56.2236357  66.4348125  19.9074113  56.6054296  66.8616581  20.6744003
  56.6081905  66.8946695  19.1611636  54.7569704 100.6568909   3.2617882
  54.6733809  99.9284744   2.6464403  54.0866899 101.2819099   2.9855508
  50.4737139  52.3130322  91.0309124  50.3025770  52.0852995  90.1170826
  51.3631439  52.6667690  91.0270691  61.8485880  22.7463055  29.6885204
  60.9740448  22.3929381  29.8514318  62.4287176  21.9873691  29.7493124
  85.0323868  21.6737652  35.8679819  85.1222515  22.0555210  34.9948144
  85.0536251  20.7284045  35.7194114  31.1369848 105.2492905  17.5460279
  31.4359283 105.9013271  18.1798303  31.9091535 105.0627613  17.0119929
  77.8902435 102.3225498  19.0055418  77.6146746 101.4254379  18.8171804
  77.4486589 102.8530025  18.3423257  78.1405544  77.3045969  72.9105234
  79.0240765  77.0140791  72.6842117  78.0024576  78.0882311  72.3784733
  69.6025610   1.0196990  19.6807218  70.4543924   1.1448877  20.0989771
  69.2747021   1.9070676  19.5347071   8.2902610  65.0012016  81.6360569
   8.6833960  64.9046850  82.5034523   7.3793513  65.2376366  81.8109226
 103.9985561   5.8179545  25.5174351 103.2648277   5.5088210  24.9861145
 104.5474911   6.3083571  24.9055457  96.7933273  15.3965485  45.2874756
  97.5024319  15.3204048  44.6490431  96.0809708  15.8164012  44.8052883
  94.0453339   1.4297110  58.0295467  94.8822975   1.7605463  57.7035666
  93.3901691   1.8331581  57.4601364  99.6714020   5.1452953  48.8745403
  99.1939926   5.1428282  48.0448961  99.0026855   5.3260124  49.5351458
  11.2606132  14.7770143   4.0786320  10.8346081  13.9934063   3.7311971
  10.7128918  15.5014324   3.7762222  86.5064526  22.7927184  38.1172490
  86.3100243  22.9689002  37.1971369  85.7170105  23.0624151  38.5865903
  81.5871143  16.1538100  47.6449919  81.6233349  15.7747805  48.5232019
  81.4123058  17.0833099  47.7923107  81.8061924  94.4350719  28.8407993
  82.1199989  94.0829372  28.0078793  80.8912563  94.1578579  28.8885307
   4.4488561 103.4466076  86.7300797   4.5820576 104.3214321  87.0949936
   4.9953493 103.4290504  85.9444141  33.5972619  85.8031845  60.7319880
  32.7860427  86.3023186  60.6370258  34.1856360  86.1751175  60.0749397
   8.3153331  25.3797746  26.3116288   8.2828468  26.0073185  25.5895734
   7.4136817  25.3336716  26.6296387  73.8851976  96.6716766  44.6030045
  73.3376789  95.9229183  44.8392630  73.5458755  97.3931313  45.1327181
  45.3575087  83.6729431  76.1681843  45.2778196  84.2651939  76.9159269
  46.1915970  83.9099312  75.7627678  82.3246098 102.0980740  50.3398132
  82.2278786 102.7660561  49.6610880  81.6996956 102.3537540  51.0183001
   9.2589140  19.2932165   3.3601129  10.0894725  19.7423148   3.5173270
   9.4713408  18.3630371   3.4367460  75.4129744  35.4539251  19.4670880
  75.9235811  35.2297473  20.2450705  75.1222563  36.3526273  19.6221697
  67.8996897 105.1553726  32.1204352  67.3382282 105.8333778  32.4963427
  68.2834053 105.5649090  31.3450170  60.6312180  96.3074684  33.7200522
  60.3510952  97.2098255  33.8733888  59.9833059  95.7740402  34.1803765
  73.9829969   3.7340808  28.9361715  73.5559130   4.2083877  29.6495199
  74.7176266   4.2930374  28.6829591  92.7163124  30.8243155   7.3462266
  92.2667217  30.2185988   6.7569840  92.8446484  30.3237438   8.1519502
 108.0195808  15.4601777   6.4453864 107.9651928  14.6346915   6.9268900
 107.5614166  15.2882457   5.6227362  78.9659739  95.7349873  30.3564882
  79.7503138  96.1934090  30.0550079  78.3134508  95.9044456  29.6769786
  18.3625555  21.8768287  27.3554444  18.2016170  21.7034578  28.2829523
  18.7330055  21.0604715  27.0199490  86.8035756 106.0176406  24.2887545
  86.1413787 105.8255981  23.6247921  87.2372399 105.1785951  24.4442177
  91.3753891  12.6018071  30.9783268  90.8806038  11.8752301  31.3571405
  91.3435841  12.4468148  30.0342941  53.9316273  84.5823288  75.1504564
  54.7360611  84.0738106  75.2530766  53.9270830  85.1773071  75.9002638
  86.3299370  12.8565550  36.2470794  86.5033436  12.1935666  36.9153643
  86.5806198  12.4378777  35.4236126  43.7010622  81.0894966  16.4763403
  43.1535769  80.3869820  16.1256671  44.4804525  80.6431866  16.8073916
  39.8718548   7.0966613  62.0683908  40.2331543   6.2249780  61.9075680
  40.5928183   7.5852174  62.4655771 100.4431152  73.0458879  26.4890623
 101.3312054  73.0321598  26.8459082 100.1121998  73.9180422  26.7037129
  98.7958145  65.6054783  32.8712249  99.4838333  65.9255791  32.2877932
  99.0706730  65.8882093  33.7434316  23.9560485  46.3883686  33.1571269
  24.1122890  45.8472633  33.9310932  24.8265028  46.6874981  32.8943253
 111.1598682  46.7923927  89.0390968 111.3141537  47.5121212  89.6510029
 110.6508923  47.1856499  88.3302116  39.1661882   5.1294357  23.0595970
  39.7682071   5.0728017  23.8016200  39.2575264   4.2881116  22.6123118
 110.9416008  15.2573085  28.8634706 111.3160515  15.0278711  29.7139859
 110.6122398  14.4286978  28.5153937  92.4561119  38.6895204  24.3094444
  91.5488148  38.4255314  24.1566229  92.7456379  39.0484786  23.4706593
  43.3053970  39.8397398  12.2847331  42.7150536  39.1780043  11.9244063
  44.0867043  39.3496799  12.5409198  20.9591293  35.1849890   3.2603398
  20.7987452  36.0782933   3.5645023  20.3522921  34.6464586   3.7682417
 104.2203712  31.0753298  21.1089659 103.7345409  30.8810973  20.3074145
 104.6827316  31.8911862  20.9170485 104.6376801  34.7399473   8.4753656
 103.9691257  35.2418351   8.9415967 104.1715145  33.9745474   8.1390953
   6.8380529  18.4564579  44.3662310   6.0372555  17.9875386  44.6009016
   6.7691213  18.5899997  43.4209013  24.1112638  40.2932549  25.8650589
  24.3761039  39.4360924  26.1987686  23.7861681  40.1165867  24.9822617
   9.4229633  58.2393789   4.2377800   9.8854500  59.0328026   3.9679310
   9.7984934  57.5466871   3.6942869  28.9233327  27.7096367   5.0175893
  28.9014292  28.4812856   5.5835479  28.0025840  27.4860024   4.8817822
   6.8581575  35.1005936  17.7085841   7.1071553  35.9346819  17.3104298
   5.9581244  34.9552131  17.4169743 109.6956730  69.6247387  19.5482790
 109.6553898  70.3217316  18.8934433 110.5825615  69.6811771  19.9038994
 104.4905090  28.2597995  26.7852068 104.4985867  27.3202753  26.6022849
 103.7328053  28.3861017  27.3563170  27.9522133  87.9176331  79.8862886
  27.1050787  87.5751400  79.6011734  27.9417706  88.8363457  79.6177959
  11.0598230  13.1957674  12.7016199  10.5515420  13.9348936  12.3675931
  10.5590320  12.8813803  13.4543478  95.3537750  36.3400149  29.9010301
  96.1780167  36.6261530  29.5073509  94.7497368  37.0663238  29.7466207
 102.4257851  62.8930902  35.1958942 102.6281261  63.8284159  35.1745152
 101.6832256  62.8223276  35.7957578 112.4256229  62.7929735  44.4441652
 111.8275166  63.4318495  44.8318911 113.2360172  63.2811403  44.2985964
  85.8613777   0.4894467  77.1046448  86.4057636  -0.0394349  77.6878786
  85.0338173   0.5898732  77.5750589  25.2034473  19.4954324  23.9670205
  24.5812941  19.9648857  23.4113479  25.0530910  18.5714471  23.7673283
  15.7373524  73.7877989  34.8615932  14.8172796  73.7486982  35.1226902
  16.2139165  73.4258986  35.6086874  62.6640177  91.2820435  80.5335712
  63.0952644  91.2055302  79.6824503  63.3667707  91.5223598  81.1373997
 112.8574391  37.1984410  48.5311365 112.0211835  37.6633120  48.5027838
 112.6361555  36.3272762  48.8602829 105.7006168  17.7786469  11.0228646
 104.9953175  18.4142172  11.1446309 105.3754520  17.1871090  10.3442025
  10.1614654  36.9033122  46.8890333   9.9360096  36.6194630  46.0031271
  11.1027539  37.0734954  46.8537426  74.6988010  24.4401813  19.2279220
  73.9113283  24.9835205  19.2579210  74.3823195  23.5508060  19.3862903
   8.9717031  28.7900376  24.5088673   8.5693181  28.7970996  25.3773546
   8.2319504  28.7548375  23.9024377 102.8060627  12.3251557  33.5079551
 103.0871391  13.2401085  33.4982944 101.8620110  12.3662090  33.6606312
  56.7162085  95.9305286  83.7643051  56.2842607  96.4494133  83.0857563
  57.2919893  96.5515041  84.2105007   0.6906348  52.7749014  52.4294233
   0.9891361  53.2928848  51.6818810   0.1098923  52.1165037  52.0480013
 108.8078785  81.9935513  55.4096413 109.0485096  82.9171085  55.3363848
 108.9166546  81.6467381  54.5241404   0.3733993   6.9180018  29.0188289
   0.3451406   6.5876776  28.1208777   0.8195811   6.2303382  29.5130682
  68.1182384  75.8247137  68.0368423  68.7342739  75.1258755  67.8169250
  67.4093628  75.7280016  67.4009371  31.9477582   4.4980574   5.2842665
  31.6585827   5.4070938   5.3634036  31.3389683   4.0043619   5.8336955
  24.5857906  44.7412109  22.5243998  25.2118087  44.2202902  23.0273604
  25.0968289  45.4831171  22.2009015 110.0619507  23.1647468  61.4232588
 110.3961563  22.9402399  60.5548477 110.3480530  24.0672731  61.5640402
  10.7427835  21.6705704  14.1025150   9.7967380  21.7103291  14.2426920
  11.0123062  20.8515882  14.5182800  85.5748272  64.7992373   3.3119434
  86.4691448  64.6845722   2.9905662  85.1835251  63.9280748   3.2472244
  29.7245812  25.0195980  27.7795172  30.5342102  24.5112586  27.8277278
  29.1239715  24.5704174  28.3742738  96.3826370  27.0293999  25.1263928
  95.9217358  26.7395830  25.9136701  97.1835709  27.4381256  25.4545450
  16.3783634  41.1769962  41.0159397  16.4753389  41.7784500  41.7542362
  16.9743073  41.5182495  40.3491354 112.4324570  58.9508963  37.8228784
 112.4602272  58.0027628  37.6944089 111.9841663  59.2848492  37.0458698
  27.8535032  54.8976994   0.7749432  27.3745632  54.5112324   1.5080836
  27.3661304  55.6939554   0.5635846   5.7107270  42.4102068  63.2933140
   5.9448320  42.5351429  62.3736334   6.2125403  43.0777884  63.7610245
  21.8699479  20.4226470  16.3774180  21.7569041  21.3398933  16.1281967
  21.7691851  20.4189134  17.3292923  90.7651329  27.9633641  37.3131943
  91.2613869  28.2068324  38.0946541  90.9153748  28.6830163  36.7001987
   7.5447816  63.5556269   2.5576261   8.0459100  62.8502607   2.9669654
   8.0755621  63.8221216   1.8069701  22.7939963  80.5402851  33.1309676
  22.3589754  80.3952980  33.9711857  23.7222791  80.6161213  33.3518100
  14.6829772  18.7485147  30.7944608  15.5767882  18.4545231  30.6186676
  14.7572565  19.6982324  30.8879995  28.3419418  16.0760307  38.3791208
  28.0811644  16.9474459  38.0810189  29.2721629  16.0168242  38.1613684
  97.4698639  33.6957312  36.5585423  97.4512577  33.3571815  35.6634068
  96.5892124  34.0423369  36.7018795  20.4664993   3.4507990  47.5950480
  20.3621721   3.1925255  46.6792727  19.9986517   4.2830235  47.6639843
 108.7019157  12.0150912  28.9786005 107.7841473  12.0789778  28.7142897
 108.7282085  12.4100089  29.8501396 106.3979244  49.8662043  25.2650189
 107.0212746  50.4631376  25.6789446 105.5806637  50.0033712  25.7440853
   2.8726220  15.8512568   1.4022551   2.9474092  14.8977351   1.3643743
   3.0194095  16.0666144   2.3232904  28.2203698   1.2829243   3.0130085
  29.0105319   1.0409681   3.4960523  27.8693938   2.0353222   3.4893951
  44.9617958 104.4133472  85.2754498  45.2227449 104.1637230  86.1619186
  45.7874680 104.5094872  84.8008442  17.2004294  40.3135920  17.1526957
  17.6275682  41.0643482  17.5651836  16.7023170  39.9032235  17.8596008
   4.2700848  19.3668413  43.2260895   4.1742343  18.4346414  43.4211493
   4.6544069  19.3898845  42.3497343   8.1510097  42.9972601   8.1358242
   8.3105856  42.2502279   7.5590152   7.6937211  42.6244736   8.8895804
 103.7141418   5.3830576  71.8243837 103.4000874   5.9172422  72.5539351
 104.4436836   5.8829451  71.4581585  22.6522112  31.0884547  30.8409786
  22.0230055  30.4143310  30.5842900  22.7462769  31.6372180  30.0623631
  99.0911007 106.0465908  45.8890295  99.2697716 105.3163719  45.2965069
  98.2029533 105.8849716  46.2073231  10.3834045  34.6418834  35.6424570
   9.4929385  34.6864438  35.9907627  10.7567632  33.8549614  36.0394287
  13.5592210   6.7122799  56.6134930  12.8396666   7.2689259  56.9111824
  13.1993675   6.2351066  55.8658028  93.8150692   2.3791037  15.3060257
  93.7639236   1.4240390  15.2677107  92.9356670   2.6559114  15.5634451
   5.6169683  22.9373407   7.8660804   4.9675792  23.6392045   7.8223515
   5.2455068  22.2338438   7.3337841 109.8001099  35.6693983  30.8041239
 109.3772602  36.2639308  31.4237690 109.4738865  35.9446979  29.9473763
 110.8974743  52.4235535   8.0465519 109.9737453  52.2168350   7.9043412
 110.9245872  53.3792257   8.0933887  37.7557707   9.5756495  17.7753091
  36.9853330  10.1337814  17.6697338  38.0063033   9.3416613  16.8816006
  17.2499335  46.7916965   1.9659019  17.6020348  46.4159584   2.7727968
  16.3226044  46.9364929   2.1538554  11.1973298  32.8919101  18.0746198
  10.6596673  33.3048892  18.7503397  11.2320316  31.9692016  18.3268821
  28.4126067  14.5657289  13.1735122  27.6751995  14.0229046  13.4524465
  28.6724520  15.0407088  13.9628828  28.2721663  34.2441940  13.4887910
  28.5306430  33.3348894  13.6390841  27.4588299  34.3467999  13.9829433
  18.3291447  53.7133026   5.9731424  17.9886425  54.1035652   6.7781156
  17.8441596  54.1486931   5.2721030  38.2155228  88.8033485  83.8879490
  39.1179013  88.5563469  83.6856365  37.8780985  89.1686916  83.0700874
  52.2322798 104.7491550  74.2844582  51.8948460 105.0516224  73.4413195
  52.3622465 105.5503750  74.7917891  71.9323921  15.5179465  84.6297932
  71.4378881  14.7022820  84.7097397  71.2780905  16.1714840  84.3827820
  31.6489244  76.5011978  25.5997944  32.4638081  76.7793941  26.0178876
  30.9810758  77.0794582  25.9683394 106.1342525  11.2800360  32.2548294
 106.4377785  12.1674573  32.0635462 106.9357491  10.7825017  32.4169636
  32.7183962  70.2822304  34.5730066  32.9325676  69.3503714  34.5282817
  33.2603288  70.6853628  33.8947535  21.4160395  32.7610660  32.9591036
  21.4127374  32.2670960  33.7789893  21.7239571  32.1351600  32.3036194
  18.9808369  49.1114044  18.7513518  19.5337009  49.0426111  19.5297086
  19.3229473  48.4454489  18.1549489   8.7155735  64.7067785  18.4689271
   9.6167552  65.0280094  18.4386849   8.3966732  64.9690294  19.3325007
  22.9967189  18.0422366  30.2804422  23.1496024  18.3004010  29.3714809
  22.2360611  18.5565639  30.5508089   4.9723685  32.5475383  40.6880903
   5.0273168  33.4589601  40.9753513   5.5709285  32.4947500  39.9429917
  26.3264298  58.4166241  24.5302415  26.6065574  59.3288183  24.6055222
  27.1098042  57.9075384  24.7385406  18.8621950  28.9502740  40.2648687
  18.9592838  29.2135310  41.1800194  17.9765654  29.2263341  40.0288963
  18.1056392  30.0163150  19.3975174  18.2903695  29.0828991  19.2933929
  17.2148955  30.0466990  19.7466362  36.5199542  60.7138252  11.0230041
  35.9401083  59.9624157  10.8989072  35.9886241  61.4700747  10.7739997
  60.2898932 103.9779949  85.1722527  60.4965639 104.7608566  84.6617126
  59.5990372 104.2588520  85.7723141  89.4122601  35.9225798  69.1770506
  89.5501328  36.7794943  69.5806837  90.1835632  35.7906079  68.6257696
  51.7354822  70.3593874  33.1299734  52.6010704  70.7238054  32.9450607
  51.5932274  69.7159100  32.4357581 101.5027332  45.4545546  46.4461803
 101.1071873  46.2882805  46.1918545 102.2414303  45.3472471  45.8469725
 110.6323814  25.2587700  26.9481850 110.5281067  25.3956580  26.0065794
 110.6757069  24.3078399  27.0486236 105.4949093  58.6587811  19.0659022
 105.1759338  59.5325518  19.2917645 105.1710796  58.5077286  18.1778991
 109.7138309  80.7921505  35.0970531 110.0969791  80.1809692  34.4678593
 109.8099613  80.3559780  35.9436584   3.4865123  32.2666359  43.2759142
   3.9446855  31.4534831  43.4882689   2.5611007  32.0226192  43.2585669
  34.1695261  -0.1599642  22.3864865  34.7215104   0.3121147  21.7630363
  33.9903951   0.4771391  23.0780363  94.2876530  20.5387592  73.7954044
  93.8124180  20.0419235  73.1294203  94.6774101  19.8709965  74.3596888
 100.7932186  21.2678909  33.7661195 100.5548954  20.6851125  33.0451441
 101.3061047  21.9625592  33.3530569  37.2616029  42.0638037  25.6168795
  37.6723719  42.7347851  25.0716400  37.8780675  41.9296980  26.3367534
  58.5913134  28.8162327  88.9377594  59.5187902  28.9527011  89.1311359
  58.1408405  29.0463209  89.7503853  37.4447584  38.4326673  35.4197979
  38.2324171  37.9237747  35.2278161  37.1434355  38.0981207  36.2644958
   5.2613944  58.6580038  13.1526911   4.7964171  59.4888163  13.2515907
   4.6404678  57.9978704  13.4607613  68.2906389  83.6269188  40.2955961
  67.5466776  83.1224918  39.9664879  69.0450525  83.2789040  39.8202276
  27.4003863  64.8041630  14.4779062  26.6648841  64.4837809  15.0000405
  27.8873324  64.0150070  14.2405319  18.2672608  85.8012676  83.8885593
  17.9932952  85.2239323  84.6012020  17.5239325  85.8067322  83.2855129
 105.7069206  22.3405433  88.6195087 104.9132729  22.0574093  88.1654263
 105.3880978  22.7765656  89.4097424  10.6867516  77.8090429  71.2673950
  10.1708758  78.5126019  71.6612339  11.2636805  77.5122499  71.9711685
  23.3729959  53.1551886   1.4492007  23.3204627  52.3258638   0.9741259
  22.4778557  53.3179569   1.7466217  82.1276379  52.2494316  33.8034749
  82.1881104  52.4095535  32.8617001  81.2052250  52.0415401  33.9523339
 112.3142248  21.9689059  88.1042004 112.0773610  21.1224127  87.7252769
 111.4905717  22.3176003  88.4451389 108.7802315  75.7688618  31.4626002
 108.6425018  75.4576778  30.5679345 109.7283268  75.7269907  31.5874624
  89.2462349  14.6677327  15.9758484  88.3035469  14.5409739  16.0831416
  89.4746208  15.3300118  16.6281199  94.5251560  28.2022548  50.5392218
  94.9323940  28.6264133  51.2945223  93.7896824  28.7714243  50.3126049
  82.4465084   1.1354838  82.6775265  83.3214760   0.7477028  82.6943398
  81.8939590   0.4627005  82.2796726 103.1440544  23.2426167  17.2682667
 102.4142361  22.6379037  17.4021375 103.9261913  22.7082396  17.4058330
  11.2006247  83.1171417  31.5118551  11.7761648  83.7202072  31.0414433
  10.9760511  82.4474239  30.8658767  27.5042629  71.7585325  33.6856818
  28.1450486  71.0936832  33.4334946  28.0215907  72.5538349  33.8125706
   6.6881508  69.4764233  35.0902772   7.0309490  68.6078739  34.8796940
   5.7757473  69.3210745  35.3344488  43.7143803  51.6715670  12.5141633
  42.8980350  51.8130064  12.0347786  44.2156267  51.0716438  11.9618249
  55.4447031  61.3419056  55.7083702  55.3659916  61.6291332  56.6180611
  56.0373116  60.5910873  55.7446957  51.8196249  27.2033167  21.9838333
  52.2236109  27.4260068  21.1451221  50.9242249  26.9506288  21.7587996
   6.8421865  56.2181473  15.5576158   6.7271900  56.3485861  16.4988875
   6.3496363  55.4204607  15.3644168 103.0928516  16.4118135  17.1361685
 102.7425766  15.6121182  16.7437017 103.7357235  16.1034858  17.7748191
  18.7235153  25.6310058  87.0272064  19.4342148  25.9462833  86.4688683
  18.0346906  26.2888670  86.9324970   0.3577858 103.2494640  38.0061269
   0.5052791 103.2028294  38.9507437   0.5445633 102.3652744  37.6906085
  32.4201918  67.5860643   3.7890604  32.8322196  67.9512548   4.5720699
  32.0778823  66.7380905   4.0718827  20.3850842  67.8897095  16.8707466
  19.4714773  67.7205372  16.6406715  20.7650423  68.2700396  16.0787785
  28.9871573  37.7870011   9.8208493  29.8771667  37.4493170   9.9212587
  29.1030979  38.6599350   9.4456500  41.6966105  98.1665230  54.1469383
  41.4872599  98.7391472  53.4090328  40.9978724  97.5123024  54.1481781
  98.2466030  13.8181829  70.3424835  97.5399876  13.3191884  69.9326944
  98.1336594  13.6669266  71.2808847  26.5331149  50.2177000  35.7422400
  25.9140301  50.8916187  36.0229540  27.3782039  50.5124855  36.0815883
  68.8532837  -0.1395064  73.3966112  68.2242592  -0.6255084  72.8633499
  68.7607319   0.7684964  73.1081820  96.9797993  13.0279100  81.6944122
  96.0259914  13.0446827  81.6156960  97.2275162  13.9463282  81.8010902
  56.7952919 104.1595459  77.3045444  56.4140987 103.4843063  76.7433214
  56.2031174 104.9064350  77.2166443  64.8546553  55.2997637  18.6518645
  64.8699236  55.1313543  17.7097201  65.0701857  56.2288809  18.7326121
  75.5741310  81.6133499  78.0928087  75.8458614  81.1765575  77.2855806
  76.0634708  81.1663246  78.7834215  77.7846479  57.4514389  21.7299104
  77.5213146  57.8001595  22.5815439  77.7794409  58.2113695  21.1479259
 111.5965748  13.8183379  90.9925556 110.6572723  13.6549318  91.0776997
 111.7465878  13.8670886  90.0484371  63.8249397  96.5240955  83.6800194
  63.4544754  95.6464195  83.5869122  63.5530186  96.9843197  82.8859901
  76.9365692  10.6100726  70.3654289  76.7614985  10.4771233  71.2970448
  76.6049957   9.8172331  69.9438858  20.7200265  72.1361399  70.6862545
  20.0242829  72.6337242  70.2566242  21.4078689  72.0656443  70.0243330
 102.4907875  37.1013761  45.4849005 102.2805595  38.0040884  45.7239580
 102.4653912  37.0948863  44.5280600  70.0540352  21.5358710  82.4838638
  70.6664801  21.8017316  81.7979527  69.2899799  21.2087131  82.0090771
 110.5720901  59.0546703   5.1969880 110.2985001  58.8264990   4.3085507
 111.4961243  58.8076353   5.2339298 107.1614838  85.5447769  27.3832178
 107.4469757  84.8119831  26.8375611 107.9558659  85.8317661  27.8335810
   5.4291552  10.0148475   1.4668877   5.4753858   9.0615487   1.5397954
   4.8143035  10.1706970   0.7500193  10.7831502  18.7772119  26.0561776
  10.8852637  18.9652431  26.9891572   9.8429459  18.6393166  25.9411430
  97.8516769  36.2442780  28.2809496  98.3414173  35.7575798  28.9439082
  98.2738686  37.1029067  28.2536054  17.7076221  22.3259044   6.6057581
  18.1492364  22.1494818   7.4364704  16.9419289  22.8469729   6.8474895
  17.2245550  17.7265525  12.5421560  16.3321352  17.5555384  12.2412038
  17.6783240  16.8908072  12.4332762   3.4849966   3.9442390  86.6781044
   2.7185649   3.5598987  86.2525558   4.1849810   3.8620067  86.0304260
  40.7670593  84.8756599  21.2425089  41.2794352  84.8586178  20.4341698
  40.5910921  85.8041000  21.3950205  32.1338844  26.1272168  49.9801588
  31.8239522  26.9954348  49.7225332  32.9517007  26.0115480  49.4963932
  88.0380821  37.2911072  16.2505579  88.2790375  38.2040048  16.4080071
  88.7134838  36.7840099  16.7010188  37.0444775  21.2803268  21.9330144
  37.4874258  21.5128851  21.1169577  36.1132336  21.3864899  21.7387342
 107.2581387   3.1995645  76.9176960 106.4115715   3.0557612  77.3406410
 107.5825310   2.3196951  76.7257929  26.7107654  55.3792572  31.0058856
  26.0637355  56.0555363  30.8053207  26.4334345  55.0255537  31.8509960
  18.0046749  43.9484596  42.1575975  18.5251701  44.3858337  41.4837933
  18.5264862  43.1852531  42.4055243 108.6374760  56.1848497  51.1940145
 108.8986492  55.2656364  51.2493372 109.4636917  56.6675758  51.1700964
  21.7120266  51.7436886  47.3773146  22.0226574  50.8391094  47.4156857
  20.8231091  51.7068577  47.7304459  54.0373468  73.3289051   9.2554009
  53.5455132  72.7647972   8.6586475  54.2985249  72.7499962   9.9715626
  25.7995701  49.5407677   9.8478478  26.6383743  49.2953539   9.4574541
  25.9425330  49.4630814  10.7911170   8.4725028  31.4928865  19.0489542
   9.0206063  30.7090402  19.0863466   8.9475340  32.1422696  19.5674896
 110.2617836  52.1450281  27.8515744 110.5963707  52.1266651  28.7482071
 111.0032845  52.4441242  27.3253155  43.5495138  27.8989553  39.8118830
  43.0654573  28.7048912  39.9918365  44.4432783  28.1912351  39.6330237
  69.0793943 105.0658035  15.2860284  69.0985727 105.3318310  16.2053180
  68.9055014 104.1248989  15.3125525  23.6155939  56.1353397   3.0359420
  22.8882742  55.6716299   3.4509236  24.1148472  56.5004444   3.7664747
   2.4546182  61.7759275  10.8061588   2.5093594  62.5807714  10.2909255
   3.0639309  61.9138908  11.5313733  67.4225950  10.4228675  70.4713249
  66.5090609  10.1995361  70.2929544  67.8195763  10.5171239  69.6054411
   3.6122298  59.4119978   5.1342976   3.6328542  59.4695711   6.0895425
   4.5129609  59.5906019   4.8640832  18.1410313  56.1479092   7.8716022
  17.9990697  56.8784952   8.4735334  17.7421689  56.4337301   7.0497465
 104.9956703  48.2051897  16.2810028 105.1261997  47.7751303  15.4358768
 105.5507755  47.7149963  16.8874645  21.6639352  52.4477625  44.7533512
  22.0699430  51.8189621  44.1566944  21.8098378  52.0796537  45.6248093
  20.8289671  54.6531010   0.7060556  20.2216339  54.5826674   1.4425446
  20.8515644  55.5882072   0.5028320 103.4859371  34.9522114  40.8909941
 104.2147446  34.3764067  41.1223459 103.8870716  35.8145094  40.7825279
  56.1201334  92.8821278  89.3335438  56.2636232  93.7333107  88.9198685
  55.1961851  92.6904488  89.1728687 100.0645542  67.8937769  37.2117257
  99.7851086  68.7958241  37.0553803  99.3874550  67.3581982  36.7983079
  31.4670396  34.6879792   5.4401159  31.9191217  35.4987597   5.6735450
  32.1588278  34.0269279   5.4142439  55.1439905  99.8312283  91.1004257
  55.2977180 100.7730389  91.1752796  54.9167538  99.5543480  91.9880867
 101.6703987   1.2980188  85.6296635 101.8196201   0.8515275  86.4630985
 100.8634090   1.7946503  85.7651234  40.9554672  41.2136889  38.5322475
  41.6097307  41.5891552  37.9430127  40.1657391  41.1385965  37.9965973
  17.3880339  38.0803800   6.3392395  16.4534140  37.9033637   6.2325436
  17.4434519  38.5992455   7.1416974  19.4292021  44.3929005  16.3113809
  18.8359702  44.0269327  15.6553519  20.2988553  44.1024590  16.0364640
 108.5938072  30.1326919  34.6590781 109.3541145  30.2092791  35.2355337
 108.6334801  29.2353535  34.3282604  16.2139511  63.5352039  30.0493097
  15.9293282  63.1288385  29.2307186  16.3041615  62.8043461  30.6608200
   3.4786853  58.2244921  24.2400527   4.3178681  58.3082819  24.6928048
   3.4652424  58.9562750  23.6231661  61.2800932  71.1805630  83.7619114
  62.0542336  71.1640453  84.3246460  60.5415630  71.1902428  84.3707752
   9.5337445  46.9182920  20.6447506   9.9644357  46.7961693  19.7986877
  10.0679839  47.5739241  21.0930443  93.4026337  39.4409513  21.8676019
  94.2444515  39.7795439  21.5627575  93.0046082  39.0521836  21.0887146
  10.4444575  58.8664341  29.3034983   9.7999543  58.2558203  28.9457297
  10.0506616  59.1806793  30.1173806  50.2998638  94.8866749  32.5995827
  49.7867203  95.4126072  33.2130218  49.8481512  94.9873257  31.7616940
  89.8227024  89.3287086  87.3489857  90.5568123  88.7226963  87.2486782
  89.3746948  89.3042564  86.5034485  14.6808112  39.9588275  34.9546027
  15.4240155  40.3358793  35.4254651  13.9151967  40.2223825  35.4650974
  26.5936446  25.1226521  23.8101244  27.4160743  24.6969771  24.0522909
  26.2797570  24.6251869  23.0549860  74.1143799  94.4172001  78.0175400
  74.2487669  93.5144711  78.3060741  73.4070587  94.7436333  78.5737419
  24.9326110  73.8440132  30.6576347  25.7054543  73.4650564  30.2389050
  24.1985917  73.3396244  30.3068614   7.0637524  78.1568909  22.2325802
   6.4122742  78.8299179  22.4296737   7.5183862  78.0132627  23.0625844
  38.7780380  16.1717844  17.1786928  38.0979252  16.7859721  17.4551976
  39.3307161  16.6784084  16.5836215  33.7700772  28.9305830   7.0660639
  33.4131122  28.5906529   6.2455434  33.2538915  29.7167087   7.2443581
 107.7819157  31.0206580  65.4266119 108.4971046  30.9785867  66.0614109
 107.8585911  31.8915200  65.0367975  78.3527756  58.6108828  32.5566602
  79.2103386  58.9851236  32.7585530  78.2407665  57.9090500  33.1978440
  20.1511550  51.2316275   3.8476804  20.9667134  51.1320639   4.3387815
  20.1434088  50.4894495   3.2432461 108.8394547  13.3632708  91.2664413
 108.2215023  13.6284971  91.9476318 108.6126232  12.4524808  91.0787201
   8.9035475  41.0226583  49.5208168   9.3822533  40.6333351  50.2525949
   9.5466721  41.0731173  48.8136530   3.0079862  61.2421131  45.2417278
   2.2778419  60.8180094  44.7908831   3.1182665  62.0768404  44.7864246
 108.3755398  76.4012957   8.2618165 108.2376385  77.3469782   8.2079625
 108.0221367  76.1560297   9.1169107  83.7031555  10.9423530  85.8327389
  83.7450123  11.3382912  84.9622726  82.8163528  11.1313987  86.1394691
  59.9058771  68.2369232  89.2349052  60.6105852  67.5914669  89.1801071
  59.1249609  67.7639151  88.9473820  17.9629505  49.8807955  12.6545382
  17.5966740  48.9980650  12.7079773  18.8317335  49.7568846  12.2723174
  82.0099068  95.8904457  82.7180195  82.5935745  95.1388073  82.8209209
  81.4577198  95.6642056  81.9695950 109.2605305  48.9973927  43.4513235
 109.9467278  48.3656645  43.6664629 109.7197628  49.7051907  42.9992723
  65.8650875  17.3828220  83.7872219  65.1520014  17.8187525  84.2538071
  65.9970331  16.5630412  84.2634392  12.7335870  28.2755256  12.0183849
  13.5188150  28.6847305  11.6547894  12.1365464  29.0057421  12.1813560
  94.6280766  14.1366065  80.6275177  94.1724777  14.9553263  80.8233833
  94.1351795  13.4683824  81.1037159  82.2908974  48.7150431  32.1879554
  82.1038628  48.3218050  31.3355398  81.4505291  48.7046576  32.6460958
  40.6265736  91.5702152  78.4739876  41.2078714  92.0147705  77.8569841
  40.6392956  90.6539440  78.1973696  55.4933167  97.1380520  73.8840628
  56.1072731  97.4592781  73.2236814  55.2135515  96.2836361  73.5555172
 101.6357517   5.3798085  62.5067377 101.2577438   6.0681343  63.0540514
 101.7297459   5.7841599  61.6442442   3.7455741  31.9602585  47.6911163
   3.4452769  32.1481466  46.8018723   3.1630111  32.4707079  48.2535172
  39.3605900  40.5166960  11.0752082  39.2319655  40.8983994  11.9435322
  40.1679516  40.0085926  11.1541319   5.9797573  16.2631178   9.6959180
   5.5621827  16.5909517  10.4924023   6.0815471  17.0375800   9.1426736
  56.6643906  54.3063736  23.2763362  55.8543348  54.1797733  23.7703180
  56.9112206  53.4265041  22.9914904  16.0858834  46.7713070  20.0532985
  16.1054218  46.6198206  19.1083634  15.1929593  46.5452290  20.3136992
  84.5767879  36.0807014   1.5160502  85.1929283  35.7959771   0.8411157
  85.1089954  36.5913606   2.1261474  20.6550193  68.2448578  22.9855418
  21.4018035  68.7970018  22.7538323  20.8826494  67.8807735  23.8410282
  29.5710731  37.4645352  21.0476899  28.7317801  37.8567910  20.8069468
  30.2116203  37.9105711  20.4936290  50.1825714  81.7961407  76.2477446
  50.7449055  81.0218430  76.2696409  50.5881977  82.4042892  76.8656921
  88.8465214  62.7023840  22.8110003  88.7996292  62.0721579  23.5299230
  89.7219849  62.5815773  22.4433017 110.5701065  29.3005776  36.7319107
 111.1627769  30.0106525  36.9784069 110.8319092  28.5663462  37.2874212
  30.3200436  13.9197361  15.9958005  29.7106433  14.6503055  15.8902967
  29.7876430  13.1394696  15.8409894  25.7348146  68.5420106   0.3464111
  26.2139787  67.9586230  -0.2420536  25.1701631  67.9591666   0.8540424
  50.9439516  90.7052898  73.1675291  51.6611576  91.2312222  72.8136301
  51.3770294  90.0312328  73.6912870  53.5805845 102.8147316  87.6544189
  54.5224905 102.8954697  87.8045273  53.2114553 102.6636791  88.5245705
   9.6238655  62.5724316   4.2594042   9.7140616  62.1232224   5.0998259
   9.9328405  63.4623528   4.4291192  39.4848323  96.6426945  76.6322803
  39.7764874  96.3231182  77.4861193  39.9049306  97.4978542  76.5403509
  35.0793695  47.7236795  28.4941053  34.6049571  46.8950939  28.4261894
  34.8907328  48.1757784  27.6717591 101.4031982  37.4627638  50.6620884
 100.6648922  36.8682909  50.5289316 100.9990597  38.3194089  50.8001757
  53.0040789  18.3637881  26.3219166  53.0075836  17.4693942  26.6629124
  53.9298677  18.5865533  26.2243581  83.4178448  71.7878914  83.0020618
  82.5975418  72.2035122  82.7363682  83.9044380  72.4814415  83.4475327
  57.3938370  31.0386729  19.3061113  57.5209522  30.1269722  19.0436637
  56.8464279  31.4125824  18.6156297 104.6855736  46.8336964  24.3446255
 104.0111160  46.4170074  24.8810029 105.4075527  46.9966221  24.9516106
  91.4890957  20.4502702   6.4992636  91.1973476  19.8809719   7.2113132
  91.8733120  21.2078834   6.9404405   2.5359076  45.4484510   0.0875385
   2.0476049  45.0504541   0.8082254   2.7691960  46.3195229   0.4085380
  28.1459260  33.8268542  21.0731244  28.8020682  33.5860610  21.7271328
  27.4025798  34.1449404  21.5854645  99.3151379   4.9320662   6.2216657
  99.8103428   4.2877588   6.7275077  98.3987045   4.7381029   6.4185369
  27.3596072  58.5810375  47.9373074  27.7527380  58.2895136  48.7599230
  26.4177251  58.5785294  48.1078482  12.1436512  45.2851105  32.0268679
  12.5458241  45.6642962  32.8083444  12.2434723  45.9594631  31.3549185
  49.9421835 100.0002670  80.9962940  49.7167587 100.2330399  81.8969727
  50.4078341  99.1675377  81.0735130  33.1719899  26.0525846  33.3775902
  33.1353116  26.9977641  33.2308936  32.7076054  25.9202790  34.2040730
  20.7271242  46.8990469   4.5538709  21.2237835  47.6274538   4.9266699
  19.9008453  46.9003868   5.0370800  25.1862144  70.8203650  61.4186907
  25.7926822  71.0942078  60.7306242  25.7481742  70.6180906  62.1667004
   1.6292717  28.7574697  28.5746717   1.3282540  27.9593873  28.1402922
   1.8653058  29.3459845  27.8576159 102.8987217  66.7712164  27.5846958
 103.4179401  66.5386868  28.3544827 103.0685806  67.7041245  27.4541020
  55.4747438  34.9741769  10.4742467  54.6107674  34.6496105  10.2204144
  55.3081322  35.5269361  11.2377453 109.2503071  14.3508244  20.3594470
 109.6286964  13.7169766  20.9687805 108.5306740  14.7516286  20.8470106
  32.6898813  11.0791242  17.0713270  31.7973518  10.8480358  16.8139899
  32.5797486  11.7749310  17.7193677  26.9472456  50.6441116   4.1667992
  26.4721298  50.3532839   4.9452049  27.2765398  51.5126944   4.3977857
  31.2986636  27.5483799  18.8730812  31.6385436  28.3711123  19.2249668
  30.4861641  27.7944875  18.4309185  71.4436102 103.8860512  70.4007483
  72.3510885 103.9706516  70.6932545  71.5091515 103.7311745  69.4584370
  84.1704750  26.5476584  80.3015423  84.8322678  26.7687273  80.9568214
  84.6744442  26.2909055  79.5293236  22.5672388  75.4770756  50.7388544
  21.6319966  75.6733227  50.6836987  22.6154900  74.6922016  51.2846375
 111.7209911  66.5304041  15.7364392 110.9705925  66.9897318  16.1134565
 111.7575264  65.7005501  16.2120879   2.5453478  35.0379062  89.3463802
   1.9985028  34.2761993  89.1540337   3.1694242  34.7254348  90.0014591
   2.5951594  83.1925106  15.8761311   2.1685094  83.8071918  16.4730930
   1.9386998  83.0191517  15.2014160  93.4409523   4.4944778  87.2125244
  93.0202484   5.2925861  86.8927288  92.7248192   3.9776662  87.5817108
  31.8350744  68.8655043  52.9744625  31.1591077  69.0237904  53.6334372
  32.3424959  68.1325674  53.3231258   8.0992395  82.2232437  28.2741356
   7.4861699  82.8456974  27.8830791   8.7775499  82.7711105  28.6690569
  16.3578701  64.4744539  23.5369039  17.0601785  65.0670433  23.2688832
  16.3704610  64.5053196  24.4935226 104.7428417  40.9066296  43.9163113
 105.6527233  41.1787271  43.7967014 104.7694016  40.3007793  44.6568966
   5.6313652  85.9450245  33.5419703   6.4885020  86.3514519  33.4140205
   5.0081158  86.6651630  33.4460449  17.1820855  27.7092791  12.5770903
  16.8097985  26.8909121  12.2485948  18.1285548  27.5911665  12.4966085
  19.0329194  58.3481455  15.5100906  18.9177620  57.7751637  16.2681568
  19.7813165  58.8996077  15.7381713  44.9308920  99.3708706   3.7442741
  45.1286840  99.1765976   2.8281036  44.5822191  98.5505581   4.0931845
  42.3749018  65.7357502  34.5146298  41.6087532  65.1620770  34.5268559
  43.0678034  65.2187634  34.9255371  15.7478738  68.6718845  18.0853105
  16.3584697  69.2651510  18.5228443  15.2583420  69.2329073  17.4837756
 105.8240223  79.6383476  84.6793556 105.4872131  79.4033480  83.8147354
 105.0433350  79.8504782  85.1909828 108.4315681  10.7970715  91.2411976
 107.8603745  10.6795514  90.4821396 109.2943573  10.5147588  90.9376907
  32.5086880  64.4756842  18.0553317  33.3349895  64.7993946  17.6966214
  32.4364519  63.5816002  17.7212191 100.0861740  16.9160581  83.7942886
 100.3863525  16.0453343  83.5335827 100.7981586  17.5018334  83.5370255
  98.3994579  19.0346324  90.4026890  98.0462170  19.2664814  91.2615871
  97.8175259  19.4691265  89.7791481  43.8056707  28.0474997  26.4024639
  44.3254709  28.8494086  26.3478804  43.3473253  28.1157160  27.2400188
  12.1579301  26.6585398  88.5847664  12.7375650  27.3561978  88.8905907
  11.5843403  27.0854402  87.9483891  29.0634942  80.0347805   6.2372524
  28.4208179  79.6104145   6.8056852  29.0779138  79.4947433   5.4470712
  98.8877392  38.3057046  85.4929161  99.2914200  37.5078869  85.1512146
  98.1504250  38.4715962  84.9054718  14.1347802  71.7621708  27.7329469
  15.0577462  71.7327404  27.9849362  13.7457883  70.9981918  28.1586885
  38.0519223  25.2473021  22.7795172  37.1636701  24.8924279  22.8156424
  38.3232427  25.3074694  23.6954832  13.7328577   4.3201655  90.7738972
  13.8437319   5.2561247  90.9409809  12.7910888   4.2101997  90.6427097
   7.2354752  46.9111109  24.4227362   6.7646217  47.6833105  24.7361636
   6.5583372  46.3614035  24.0283513  33.7768984  63.7726688  14.9745560
  34.7055864  63.9527225  14.8284292  33.7285328  63.4900045  15.8877897
  36.0471606  63.3721972   5.1756483  36.3709450  64.2530775   5.3639013
  35.2895689  63.2673883   5.7512385  33.0336523  53.7230873  21.0172439
  33.2044291  53.8414860  21.9516158  33.7539244  54.1795397  20.5823946
  26.2983656  46.9779348  21.4774013  26.8412471  46.3355207  21.9343686
  26.9157696  47.6481867  21.1844730  86.4157486  75.6028271  17.5372136
  86.3133907  74.9470568  18.2269382  86.9901848  76.2657499  17.9203546
  18.6631429  46.8587732  38.0239987  17.8092837  47.2874451  38.0822945
  19.2659450  47.4663782  38.4525752  10.4319310  68.8519001  18.9411986
  11.0884476  68.7899637  19.6350145   9.5932424  68.8137102  19.4009542
  31.4350247  49.7851610  15.1383495  31.9631457  49.0256310  15.3841853
  31.4998841  50.3751659  15.8892977  66.9263928 105.6344286  78.4865999
  67.0335953 104.9839229  79.1805601  67.1261208 106.4700217  78.9086485
  45.8278322  77.1728039  30.4654145  45.5933666  76.2458611  30.4203749
  45.0943565  77.5834131  30.9232879  21.4274073  79.5279408  25.9693432
  21.5773797  80.1097202  26.7145109  21.1403942  78.7038994  26.3628030
  43.1772566  55.5809498  16.5618432  44.0344763  55.7455015  16.1689925
  43.3616686  55.4462767  17.4914074  36.2653017  69.4946337   3.4711906
  36.3584709  68.9000416   2.7268675  37.0695233  69.3741560   3.9761114
  39.2488360  87.4212742  42.9428482  39.5150018  88.2683659  42.5853062
  38.6914253  87.0395660  42.2647476  23.8606763  65.0754642   8.9564216
  24.0994763  64.7377920   9.8196608  23.2120347  64.4534159   8.6269474
  41.9347000  45.1747465  17.2120142  41.5765953  45.0990248  18.0964673
  41.1774921  45.3805828  16.6638386 106.0380650  28.2467365   2.7435035
 106.4888859  27.9938602   1.9378680 106.1883259  27.5148845   3.3418730
  25.7201982  81.2353897   6.2523186  25.9696102  80.4921913   5.7030708
  26.1994457  81.1005211   7.0698535   6.5530109  13.7681866  89.4237614
   7.5063872  13.7446284  89.5059204   6.3570565  14.6687925  89.1654110
  77.7716684  98.7743950  72.9334021  78.0693293  97.9188251  73.2426596
  76.9830751  98.9531517  73.4456539  45.7016659  50.3243208  11.3091469
  46.2012720  49.9018860  10.6104493  46.3178682  50.9403324  11.7054462
  23.3606267  39.0156865  18.4907365  23.4418035  39.9669242  18.4215462
  22.5680423  38.8063645  17.9965413   3.7035799  23.2421136  27.7239895
   3.6117926  23.7670183  28.5191512   4.6487382  23.1403756  27.6119304
  46.4472628  46.3607073   2.7009094  45.7839012  46.4479303   3.3854336
  46.0955000  46.8569946   1.9618630  17.5893390  58.5679102  20.2823758
  18.2985151  59.0194750  19.8247790  16.8241227  58.6932611  19.7211587
  87.4302959   7.4266177  87.2098923  86.6511536   7.5471109  87.7527142
  88.1260014   7.8806686  87.6853466  18.2034290  97.8057480  22.3875833
  18.8194978  98.4845161  22.1119642  18.4194756  97.6448631  23.3061004
   8.5580623  22.8964400   9.8530728   9.2338955  22.3902845   9.4021982
   8.7319243  23.8039851   9.6033430  63.8483334  -0.1012146  36.8236971
  64.4995117   0.5907531  36.9393659  63.8733768  -0.2996207  35.8876204
 107.5300121  79.7507429   2.7073210 108.1507397  79.0367889   2.5617215
 107.3467731  80.0911236   1.8316516  44.1564751  61.2276077  20.6901026
  43.9496660  60.4398823  21.1930490  43.9140892  61.0079288  19.7905338
   5.6572187  19.8449922  21.3632631   6.2229359  19.9282742  22.1308970
   6.2340868  20.0221586  20.6202507  11.5097034  52.1049261  15.3847528
  12.0539725  51.3212824  15.4615951  12.0113695  52.6902723  14.8173606
  43.9851570  49.2361116   3.5559481  43.3466578  48.8310766   2.9690063
  43.5766649  50.0596809   3.8225955  33.9903998 104.8623562  36.7011070
  33.4785175 104.1029930  36.4225721  33.6027861 105.1185894  37.5379634
  18.8673556  82.2379208  34.2098904  18.7420416  81.5472984  33.5590649
  19.3484902  81.8132782  34.9201155  93.2590103  35.3513145  15.3886664
  93.4907722  36.1964798  15.7736528  93.8623524  35.2499437  14.6525025
  93.7714672  73.1880045   4.5015052  94.3132687  73.6282682   5.1563722
  93.8669586  72.2562456   4.6988335 103.0420113  34.6818137  79.1320038
 103.6741161  34.2680407  79.7197628 103.5747433  35.0441575  78.4240961
  41.6208506  62.0957947  22.3750949  41.4836121  62.9411554  22.8025961
  41.9993305  62.3164225  21.5240312  10.3529024  60.8949757   9.8174018
   9.8079044  61.3711071   9.1908967  11.1520398  61.4174795   9.8852569
  17.2952092  65.7729387  42.2958899  18.2009506  65.5695486  42.0624447
  17.1676326  66.6736841  41.9982100  42.9330206  66.1366129   9.3487120
  42.7725315  65.5351734   8.6215627  43.5434818  66.7831993   8.9944595
  43.7963009  40.5750608  48.0683565  43.0374527  40.6831980  48.6416769
  44.1309595  41.4631748  47.9439116  32.4888396  61.5458488  22.6621723
  32.4168491  62.1935940  23.3632278  32.2353268  62.0205116  21.8705535
   0.8273178  70.7922649  24.2752814   1.6072676  71.2862539  24.5280385
   0.5505787  70.3534985  25.0797272   8.2713395  44.3898153  20.7698512
   8.4771347  45.3213882  20.8476186   8.9716136  44.0347242  20.2223516
  19.8166072  30.0527835  55.1944208  19.2666328  30.2429080  54.4344139
  20.3769946  30.8236790  55.2834034  20.1651764  76.7218113   5.9017074
  19.9214780  76.9785929   6.7910355  20.1920295  75.7653332   5.9274477
  92.9153442  31.1462188  79.9291325  92.9784775  30.6039286  79.1428947
  91.9813919  31.3382506  80.0132751  69.2908470  26.3526012  91.4792270
  68.4440605  26.4342215  91.9179961  69.0778534  26.3506128  90.5460271
  78.6965036 101.8028831  87.7301884  79.5924807 102.0630360  87.9441357
  78.5846424 102.0596218  86.8148708  31.4638114  11.7830014  56.2564898
  31.8507075  12.6024508  55.9481955  31.8396187  11.6533899  57.1272373
  14.8843300   5.8629286  87.9910183  14.2549765   5.2912325  88.4306908
  14.5214152   6.7426562  88.0939960   1.6752240  77.1791506  16.0696280
   2.0642589  77.4976778  15.2551198   2.2939539  76.5227938  16.3899434
 112.4344584  60.5561447  23.9034343 113.0377049  60.6388474  23.1648636
 111.9705741  61.3930464  23.9286733  21.4205098  67.7983093  25.6314635
  21.2868643  67.0174265  26.1686707  22.3692822  67.8498697  25.5156827
  54.6754980  52.4372435  13.5754943  54.5920944  52.2380066  12.6429820
  54.5178938  51.6011620  14.0140772  10.4476917  71.7275095  49.1832590
  10.8837724  70.8761024  49.1490078  11.1488163  72.3618889  49.0341902
 107.5836086   8.9251119  30.5072737 107.2355556   8.6438394  29.6611214
 108.4154224   9.3486303  30.2952766 105.5029297  21.6918254  17.6667798
 105.8630371  21.3093042  16.8666315 106.2710667  21.9114971  18.1939805
 101.8238735  20.6735110  84.4848156 101.4395809  21.5169477  84.7239113
 102.2860336  20.3887749  85.2732086  46.4418554  57.8010845  15.0777972
  46.3154936  56.8564701  15.1670885  45.7709265  58.0744028  14.4521952
  39.7052407 104.8731232   7.1985245  39.1888857 105.5467415   6.7559814
  39.7527575 105.1668835   8.1082916  19.6092296  48.7563229   2.4138905
  20.0864673  48.0137396   2.7840900  18.7598157  48.3937597   2.1623483
  58.2452965  75.3471947  85.0412655  59.1552973  75.6006384  85.1958752
  58.0712605  74.6692038  85.6941509 106.7249489  53.2881927  24.3669248
 107.4850750  52.9441690  24.8360538 107.0808315  53.9792871  23.8083839
  91.6613293  51.4852810  56.7252541  92.0145893  50.7147551  57.1699190
  92.4187088  51.8813133  56.2942410  33.8504744  62.1683693  17.3066366
  33.6676145  61.3556576  17.7781153  34.7409582  62.0569468  16.9736838
   5.9053046  77.9921675  10.6459689   6.8519545  77.8751993  10.5659449
   5.8022201  78.8751984  11.0007358  82.9539490  75.7965326  17.0256293
  83.6510849  75.3244400  16.5702617  82.3886681  75.1085711  17.3769104
   4.9122435  80.9736633  29.5722079   5.2956510  80.3402233  28.9655900
   5.2844816  80.7452106  30.4239607  34.7402930  83.3141804  81.7548370
  33.9228272  83.2587910  82.2497272  34.4689226  83.2675076  80.8380985
  13.6060834  51.0933113  42.1911526  14.1282141  51.8262005  41.8648291
  13.7968361  51.0620165  43.1286335  67.0632505  61.4051247  26.7412043
  66.7273235  60.5383396  26.9693923  66.3102102  61.8631935  26.3679194
 103.4524727  16.3214219  77.5138760 102.5493145  16.1168671  77.2715759
 103.6609840  15.6977212  78.2093954  45.7521057  61.0343790  57.7210331
  45.8206987  61.8334961  58.2434702  44.8157644  60.9433603  57.5443697
  46.5119553  61.3115311   8.9257938  45.5686951  61.1594915   8.9838648
  46.6058588  61.9762278   8.2434523  23.9277482  88.8328171   2.3403554
  23.7667274  89.5577335   2.9443502  24.5545125  88.2734776   2.7991945
  20.3949499  24.3009448  24.1383576  20.8391309  24.9981713  23.6558557
  19.6973777  24.7481489  24.6175599  57.4754620  77.7384663  29.4652271
  58.3495140  78.1284952  29.4768810  57.2504711  77.6272631  30.3889394
  48.9262819  78.7369061   4.4143677  48.2501841  78.1034899   4.6550041
  48.4432793  79.5393372   4.2167711  44.4141245  71.1646700  27.2251487
  43.5783768  70.9055758  26.8370318  44.1927099  71.4238787  28.1195879
  47.6029825  67.3887157  21.1846352  47.1497536  67.2557116  20.3520942
  48.4394455  66.9359827  21.0769749   7.8976578  51.5768337   2.2908020
   7.7922946  52.5181961   2.1530870   8.1905645  51.2420797   1.4432296
  12.1762884  64.9324465  31.0318899  11.5277994  64.5368814  31.6143203
  11.8684161  65.8298492  30.9049487  37.1730542  78.5960340  33.2247782
  37.6321125  78.9949179  33.9639568  37.0307159  79.3184662  32.6131701
  17.8274643  79.2350054  27.0553374  18.3787632  78.4538841  27.1017075
  17.9670978  79.6767807  27.8929353  21.0122490  70.5104303   6.7177546
  20.6613088  71.3902855   6.8553209  20.3171659  70.0454330   6.2520623
  41.6312218  86.9983864  81.2206268  41.8291044  86.0679817  81.3274765
  40.7960463  87.0134926  80.7532024  85.8811855  19.6920347  78.8737535
  85.8432198  18.7511587  79.0456295  84.9659157  19.9549270  78.7768030
   9.1644990  84.1686916  38.9781332   8.5340947  83.9929104  39.6766496
   8.6475825  84.1292191  38.1734776  39.7751856  37.5954342  31.7790699
  40.4208565  37.2732282  32.4079776  40.0290585  38.5044765  31.6196203
  25.6937599  62.4572468  13.1601727  26.2841940  61.7254400  13.3392787
  24.9898338  62.3595238  13.8013959  20.7320690  64.8089361  42.3901796
  20.7745051  64.8460531  41.4346409  20.7856631  65.7233620  42.6680040
  32.8269792  49.2671967  19.7186911  31.9406891  48.9726210  19.9283230
  32.9245996  50.0912666  20.1957750  24.4048882  75.1350784  41.8855810
  25.0347495  75.8335924  42.0633030  24.4162345  75.0389194  40.9332943
  44.1583157  89.8673630   4.5833310  43.9519119  90.7350159   4.9309117
  43.3817816  89.3415737   4.7751036   6.4539957  38.5658622  39.4628501
   5.7262325  38.0106997  39.7428298   6.2208688  38.8365793  38.5748219
  35.8697462  52.0319176  11.3974583  35.0924444  52.5613689  11.5755355
  35.8099794  51.8248415  10.4648387  48.3063269  89.1906357   9.0704143
  47.4897814  89.1722202   8.5712671  48.0579233  89.5481682   9.9228835
  50.0624752  25.6130600  31.7372751  49.4170427  25.1484418  32.2699833
  50.8271217  25.0372887  31.7311811  49.5426893  70.5748796  12.9800403
  50.0722170  71.0438442  12.3351359  49.3754625  71.2198687  13.6672521
  41.5995455  67.3597813  20.9482980  41.4299488  67.7004576  20.0699973
  41.8850660  68.1231403  21.4502835  77.3371935  21.9536161  16.4419866
  78.2849026  21.9483519  16.5763330  77.1757841  22.7290297  15.9044826
  30.3839755  89.1953182  30.4593563  30.9702444  89.2532158  29.7049236
  29.5741725  88.8273811  30.1057053  42.2688913  86.6746521  38.8879323
  41.3254786  86.5744877  38.7607741  42.3901939  87.6093960  39.0545774
  12.7306485  65.4922485  11.8082392  12.9377162  66.4212132  11.9101512
  13.4516323  65.0370312  12.2431993  14.8116434  10.4241323  87.1932602
  15.3045070  10.3721380  88.0121708  14.0210783  10.9137642  87.4201965
  14.5094156  75.9852219  10.9166384  13.5679495  75.9837770  10.7438099
  14.5779133  75.9417152  11.8703926   4.4912153  51.6343689  41.6000843
   3.5932720  51.8704128  41.8329191   4.4804293  51.5636206  40.6455612
  42.2896957  85.7829094  13.1844032  42.9523039  85.2334595  12.7657354
  42.6725864  86.6601849  13.1866670   5.8589089  47.2967482  44.0567207
   4.9375725  47.0381069  44.0348816   5.9027904  48.0738831  43.4996128
  32.1046281  62.3801136  12.8857255  32.7361083  62.7897501  13.4770477
  32.5442958  62.3699427  12.0355356  36.2347221  57.8640604  26.2454438
  35.9331465  58.7600565  26.0955191  36.7376995  57.6461744  25.4607320
  37.9134727  52.0233870  34.6485639  37.2951055  51.3779497  34.3061161
  38.4424162  51.5365171  35.2805519  28.3525157  82.2589397  26.8725228
  27.8124952  81.7326450  27.4621153  28.5064006  81.6909313  26.1175942
  53.1470156  41.3343334  28.3712816  52.4728203  41.4658689  27.7046537
  53.2312346  40.3835011  28.4424043  27.9453802  73.0307531  15.1439309
  27.5971270  73.4905052  14.3800068  28.8818908  73.2285357  15.1361382
  37.3164558 101.5445709   6.4855772  37.1031237 102.2067451   5.8281249
  37.3446584 102.0275021   7.3115391  41.8400049  57.4275589  15.3700960
  42.4632502  58.1136656  15.1312315  42.3612452  56.7896223  15.8575130
  57.6954889 105.4091263  90.5062866  58.2200813 106.1426258  90.8272457
  57.7746439 104.7417164  91.1878586   4.4572616  39.0906239  32.0262671
   4.4414020  38.2842064  32.5417042   4.6014008  39.7838140  32.6704288
  12.0688045  44.8076391  18.0954611  11.1863780  45.1481152  17.9483962
  12.5923955  45.1862526  17.3892486 107.5019169  85.0199795  35.0436950
 107.3268890  84.0951920  34.8694611 108.2840157  85.2169895  34.5281982
  -0.0773543  80.0016880  56.6514444  -0.5028742  80.7164764  57.1249771
   0.7950861  79.9423981  57.0407534 110.1024628  58.7315607  21.7037010
 109.2861652  59.0813065  21.3465500 110.5682373  58.3856869  20.9423470
  37.1275449  68.7907219  11.2123632  36.6094995  69.1398144  10.4871070
  36.9689727  69.3987751  11.9344163  96.8008041   9.1049552  83.2834721
  96.5811825   9.9575412  83.6591053  97.7093220   8.9549267  83.5448360
   8.3401024  68.1115198  26.7936707   8.5769737  67.7899981  27.6635814
   8.6318421  69.0231562  26.7876291  48.2302570  96.7967319   2.1561648
  48.3590364  96.2227058   2.9112458  49.0151787  97.3441505   2.1348298
  47.7758884  94.6424866  82.9898643  48.6745691  94.9283028  83.1539345
  47.8396749  93.6917114  82.8994274 100.9607220 103.8484669  72.3171949
 101.8377876 104.1325569  72.0597601 100.5718994 103.5107231  71.5103579
  13.2500899 101.7385101   2.5225163  13.4900558 101.1689758   3.2534555
  12.6322746 101.2196636   2.0074111 105.7987404  44.6100521  10.8048427
 105.0002575  44.4200134  11.2973261 105.4992390  44.7448921   9.9057603
  23.8249850  56.0172939   7.1534860  24.2685962  56.1827326   6.3215786
  23.0699944  55.4775715   6.9191414  97.3049164  18.7778068  32.8042078
  97.7340984  19.1555893  32.0365405  96.9278336  19.5292270  33.2618237
  89.0988350  93.9952660  44.7861481  89.8481369  93.4120083  44.9069357
  89.3746853  94.8238659  45.1780224  44.7957850  51.4765549  29.8663688
  44.9502754  52.4081707  29.7099805  44.2048597  51.2102222  29.1620207
   9.4388139  57.4577188  37.2085595   9.3028712  58.1982613  36.6175032
   8.5756785  57.2924805  37.5879359  35.8010077  86.8455505  32.5912762
  35.1491261  86.9659233  31.9007754  35.5860448  87.5132084  33.2426286
  35.5326962  90.7865715  10.2782619  35.1617408  89.9156952  10.1361394
  36.4123487  90.6198692  10.6168664  11.6146684  78.1506777  62.3325062
  12.0176506  78.9585066  62.6506996  11.0947967  77.8350687  63.0716658
   9.8256791  70.5682898  15.8627653   9.1094846  70.4818010  15.2336252
   9.5188159  71.2268400  16.4859653  54.1751814  72.2655439  21.9253707
  53.4623480  71.9970179  21.3457227  54.7748899  72.7507067  21.3586283
  12.4818587  40.5661488  30.8409262  11.8321192  41.2205505  31.0974979
  13.3169448  41.0329771  30.8714557  75.5026722  40.4967499  26.9836140
  76.2775993  39.9781466  27.1998811  75.3123951  40.2744389  26.0722399
  17.8953922  33.5972762  87.8203583  17.6681876  34.4543648  87.4597931
  18.7794614  33.4273267  87.4951363  66.0201359  62.9720211  15.6485438
  66.0169077  62.8018093  14.7066045  65.4679251  63.7467575  15.7538295
  42.3073149  87.5536919  34.9412107  42.9722404  87.0179462  34.5086741
  42.6438093  88.4477806  34.8811030   4.4420585  47.5530958   7.4369687
   5.2144766  47.3863554   6.8967837   4.6618402  48.3422899   7.9320449
  83.1890106  70.0014973  11.6243410  83.6767483  69.4796133  12.2615087
  83.8590240  70.3463316  11.0340881   0.0559423  89.8810577  29.4478703
   0.7457960  89.2185402  29.4103575   0.3231420  90.4651451  30.1575732
  70.2739429   5.3021252  10.6856227  70.9525537   4.7075662  10.3659046
  70.6077766   5.6170481  11.5256274  79.1883230 103.1581211  84.9745941
  80.0141621 103.6390018  85.0291061  78.5159063 103.8389301  84.9500942
  40.0708151  48.4096098  15.0331223  39.8604131  48.2695627  15.9563494
  41.0275316  48.4087706  15.0027049  22.4835014  58.9398527  34.8897314
  22.4227118  58.7415791  33.9552665  23.0251980  59.7278595  34.9326372
  55.7042742  88.9563560  12.3393965  56.2414360  89.6562004  12.7107584
  56.2210512  88.6208248  11.6068745  47.6477814  32.9773283  20.7454729
  47.2440767  33.5642672  20.1061296  48.3230877  32.5127482  20.2511477
  74.0697527  96.9916534  90.2978134  74.2290640  97.9352283  90.2751350
  73.2646036  96.8725109  89.7940540  17.5794971   6.1890322  86.1326027
  17.0383143   5.6842756  86.7397022  17.0960486   7.0048302  86.0022831
  16.3904428  30.8515787  50.2809334  15.5679309  31.2915635  50.0661802
  16.1400688  29.9423003  50.4445076  97.8673363   4.4418558  88.5089302
  97.4635315   3.7101340  88.9755726  97.2090530   4.7094721  87.8676224
  39.7824836  79.8491955  32.7722049  40.2294779  79.5224476  33.5530162
  39.8089957  79.1165161  32.1568060  62.3316193 100.0621605  11.6649127
  61.5541744 100.5898094  11.8476832  62.6200867  99.7549915  12.5243676
  19.3379617  73.5748577  41.1982727  20.0456166  73.7859011  41.8073034
  19.0145218  72.7234268  41.4926910  11.8345428  55.1651955   0.0404195
  12.0938420  55.6807566   0.8040900  11.5205681  54.3378687   0.4053558
  16.2952042  49.9317265  17.4845064  16.5598059  50.3327131  16.6566002
  17.1196330  49.7203445  17.9225314  14.5420313  91.5054131  20.3566575
  14.5585787  92.4314976  20.1151586  15.3286123  91.3823700  20.8880568
  57.2179079   7.6240420  18.3302224  57.9693317   7.2385049  18.7807214
  57.5174427   7.7505285  17.4299383  10.1457930   4.2053163  86.2830734
   9.5187253   3.8201588  85.6709671  10.6386459   4.8347634  85.7566452
  27.4893641  84.7734928  22.2044325  26.6737103  84.4741154  21.8027949
  28.1659698  84.2210484  21.8129802  15.1384258  35.3794336  11.8816614
  14.9541831  34.5532107  12.3284745  14.3946064  35.9409070  12.1000934
 110.9977341  99.5132923  19.4379830 111.4799786  98.7985039  19.8536062
 110.9496689  99.2648411  18.5148406  33.3554912  40.4058266  30.1821995
  34.0803027  39.8136568  30.3827381  33.4804392  41.1467361  30.7752204
 106.1159229  79.0050220   4.9306172 106.6566753  79.5499849   4.3589267
 105.5410576  78.5273981   4.3325877 107.0400333  55.5145979  22.4215794
 106.1265755  55.7963657  22.4708009 107.5406837  56.2702799  22.7290344
  38.0953765  60.5174112  17.5170708  37.8727651  61.0816193  18.2575750
  37.6458573  59.6925497  17.7008212   5.9431255  60.0085735  32.6477313
   6.2369651  59.1988373  33.0651212   5.3216475  60.3868151  33.2697678
  11.1157048  57.5103951  20.4735756  10.5342662  58.2412386  20.6834078
  10.8113039  57.1992970  19.6210551  41.3251638  52.5287867  10.7203138
  41.5514421  52.0250654   9.9384594  41.8572330  53.3219242  10.6565368
  16.7245519  53.6937284  89.1875553  16.2941337  53.9748907  88.3801365
  16.7410433  52.7384043  89.1300392  27.7189207  43.6491394  18.7970603
  28.5704851  43.3969975  18.4399986  27.7400970  43.3449984  19.7044086
 106.8767738  13.2500601  67.7230740 106.7696667  12.6056385  68.4227037
 107.7581882  13.0921316  67.3848486  27.7172399  69.4469738  22.5352383
  28.5151863  69.8061800  22.9231668  27.9530168  68.5531044  22.2869611
  36.3131762  95.8814144  19.7558367  37.0639205  95.7901859  20.3426003
  36.5446448  95.3591824  18.9877689  93.7261009  16.8998253  81.0308838
  93.0453968  16.3241994  81.3794804  93.6352062  17.7096772  81.5329933
   3.5473660  95.9245014  85.3005409   3.9455321  96.4505959  84.6070576
   4.2719746  95.7189655  85.8912373  68.9780807  82.9056072  24.6815610
  68.0823851  83.0602837  24.3815064  69.4318533  82.5599766  23.9128852
  18.5703003  43.1808519   1.8889335  17.7215588  42.7816486   1.6978607
  18.6486495  43.8926077   1.2537216  99.1832542  36.4020872  52.8340530
  99.9167728  36.8798923  53.2212114  99.4910240  36.1567879  51.9615078
  11.9974840  80.8934307  55.4249620  11.8585050  80.3079414  56.1693525
  12.2257948  81.7343903  55.8210564  56.2367535  72.1313953  26.9503427
  56.0883141  72.9340124  26.4503360  56.4448071  71.4719248  26.2884974
  40.8871651  66.1735010  42.7304029  40.4259109  65.6215096  42.0989132
  41.7650461  65.7955647  42.7825880  74.3868113  36.8328619  36.1957717
  74.1948605  37.7684164  36.1315393  74.3513870  36.6449332  37.1336722
  76.0509634  21.6136408  89.7148895  76.8592262  22.0666981  89.4747162
  76.2409544  20.6879306  89.5625877 101.1585045  33.6883545  90.7814026
 100.6668472  34.3746495  91.2325287 100.6529427  33.5139632  89.9875355
  63.6575842 105.2116299  72.7774715  63.6270618 105.6456470  71.9248629
  62.7957344 104.8056984  72.8705740  71.0336161  76.1451578  25.9561324
  70.6263065  76.9361448  25.6030440  71.6530180  75.8721590  25.2793431
  31.9968104  51.7002106  13.4896445  31.6952109  50.8160448  13.6982620
  32.2645211  52.0670033  14.3322754  67.1893406  39.8982763  13.6430490
  66.5635920  39.4448972  14.2079556  66.8222237  39.8141789  12.7630579
  90.9377003  74.1815948   1.9815153  90.1600552  73.6252260   1.9374283
  90.6398582  74.9746656   2.4271141  41.6177177  87.6068783  28.6737895
  42.4306440  87.1156883  28.7925792  41.3036394  87.7689552  29.5633483
  66.2150240  51.7688417  29.0760255  65.4814148  51.1542749  29.0949678
  66.8395185  51.3775969  28.4651566  48.9344120  88.0512524  30.2015090
  48.5701752  87.9478645  29.3223739  48.7349367  88.9569664  30.4384184
  64.0194941  74.3245459  44.8258734  63.9549398  74.5136166  43.8897514
  63.1483936  74.0096664  45.0672531  37.4311519  77.3285532   3.7980604
  37.7590275  78.2241821   3.7169969  36.4915991  77.4013376   3.6302108
  83.7249756  10.3234887  39.5484495  83.1509304   9.6959037  39.9875760
  84.6018887  10.1096439  39.8670912  51.1602592  53.1364822  15.8578384
  50.7159328  53.0986834  16.7048192  50.9266567  52.3137999  15.4278934
  76.2938309  92.3763466  45.9390068  75.8745623  91.5159988  45.9232569
  77.0510435  92.2844028  45.3607273  21.8912292  73.7140656  34.0654421
  22.3511910  73.9850664  34.8599386  20.9663725  73.8644934  34.2610025
  97.0153809  42.6932430  86.5260506  96.6344357  42.4562740  87.3716068
  97.7879429  42.1337843  86.4461803 103.0919361  36.9046283  83.3577061
 102.2250271  36.7035723  83.7102318 103.4213924  37.6071405  83.9181995
  70.3150511  72.0608187  19.5909643  71.0301542  71.6346169  19.1185129
  70.0692749  72.8012133  19.0363073  59.4518566  85.6233501  25.7549882
  58.8897467  86.3915825  25.6545711  58.9349413  85.0158691  26.2841368
  22.2580051  58.5450697   2.3941968  22.6569057  57.6821661   2.5060427
  21.7171383  58.4589720   1.6091606  20.3195262  22.4928188  90.8184052
  19.8535037  22.8142548  90.0465679  19.8802686  21.6713428  91.0385418
  30.7171726  51.5538931  76.6456366  30.2736878  51.8012953  77.4570179
  31.6490889  51.5918589  76.8608665  36.0573554  76.2209845  19.0385842
  35.6584930  75.3735542  18.8411009  36.1874890  76.2092924  19.9868250
 111.1978245  60.7736969  71.8430281 112.0193291  60.2879524  71.9165468
 111.4348888  61.5762949  71.3784170  91.9437885   7.5585490  67.2836304
  92.4093914   7.3488039  68.0932331  91.0224438   7.5970107  67.5402784
  88.1879330  13.4791756  33.8666844  87.6255608  12.7984369  33.4971404
  87.7829170  14.3009961  33.5895514  45.1357222  45.5931044  31.3960981
  45.3256130  45.0968599  30.5999088  44.5211601  45.0421476  31.8808651
  47.6191139  73.6334848  11.8019998  47.6800966  73.6973143  12.7551198
  47.5763702  72.6933575  11.6271555  26.2288833  35.3022122  84.0237904
  25.8638978  34.4335485  83.8551426  26.5010190  35.2737141  84.9410439
  44.1830301  53.0893326  40.6561947  43.7595034  53.8159943  41.1131716
  44.7979403  53.5101128  40.0553131  33.6151695  80.4478455  30.8253288
  33.0335093  81.0992622  30.4334617  33.3323431  79.6155119  30.4465628
  65.6880856  30.7400942  22.4850512  65.7570887  30.9461117  21.5528345
  66.4745522  31.1229467  22.8738022  83.4364414   7.6599640  22.6779985
  84.2864704   7.2918570  22.4367785  83.5905170   8.6031365  22.7320337
  75.3539038  74.1079187  23.5315537  76.1481333  73.8090515  23.9743996
  74.9790812  73.3139658  23.1502652  43.4498310  81.9289684  34.0570045
  42.9907703  82.7412033  34.2709279  43.0182409  81.2621117  34.5911098
  91.7145443  17.7195942  89.8278809  91.6843414  17.8348887  90.7776356
  92.5506020  18.1053233  89.5662498  13.0883765  57.5184441  80.3212547
  13.3856559  58.3249331  80.7424831  13.8514853  56.9410515  80.3439140
  34.1957641  60.3879929  19.4125950  34.3798470  61.1566353  19.9525368
  35.0348783  59.9314547  19.3518245  44.8497772 103.4250546  21.5011120
  44.3072319 103.7998104  20.8072567  44.3277502 102.7022362  21.8493223
  25.5495310  64.9767256   1.0012773  24.9963951  65.7133389   1.2614207
  25.9041905  65.2325153   0.1497967  43.8440466  81.2729454  29.5225978
  43.8434219  82.2046089  29.3029618  44.5822287  81.1689091  30.1230073
  79.9174881  64.9179220  30.3354549  80.1616573  64.0250635  30.5792069
  79.1180372  65.0917244  30.8323455  54.8232174  80.0149250  53.5548401
  55.0392199  80.9274769  53.3629370  54.8628664  79.9550295  54.5093393
  62.0680857  95.8328533  31.2035990  61.6438055  95.8422947  32.0615792
  62.1301365  96.7556286  30.9569120  50.6068468  99.8502541  10.5277884
  49.7327375  99.6969032  10.1691115  50.6255388  99.3420219  11.3387036
  17.8255355   8.6966705  75.4192829  18.6941016   8.8813484  75.0619078
  17.9935741   8.1492311  76.1862946 106.5150070   1.5056540  81.9838715
 105.8491898   1.2832832  82.6346207 106.0166454   1.7253657  81.1967373
  16.1101019  91.3546753  10.3835285  16.3698518  91.1355877  11.2783813
  16.9261551  91.6090298   9.9527282  18.0509913  25.5281425  80.3179550
  18.5577250  25.6178355  79.5108557  17.2256255  25.9765053  80.1336384
  42.8539085  91.8691540   2.5379238  43.0275679  91.7840958   1.6004595
  43.4235811  91.2177849   2.9471070   5.5024487  88.8515854   2.6990828
   5.2501243  88.5641575   1.8216150   6.0885924  89.5932674   2.5488564
  43.0351448  71.2254477  31.7435694  43.1194782  70.2965879  31.9588208
  43.8922691  71.5980101  31.9503570  59.7187138  43.8370419  22.7453303
  59.2636585  43.0446577  23.0304313  60.6409550  43.6651611  22.9354906
 111.7558289  24.6703148  66.6834068 110.8382034  24.9339128  66.6147470
 111.8588352  24.3965364  67.5948143  37.8874683  43.2176971  88.6550713
  38.0905128  44.0803099  89.0168762  38.7416577  42.8344250  88.4558392
  39.5460677  43.9996481  91.3608360  39.8694825  43.3390522  90.7482624
  40.1515818  43.9568424  92.1009445  47.4515963  65.5753565  26.0752964
  46.5150499  65.6656837  25.8993506  47.5400257  64.7032976  26.4599013
  46.7553234  61.8542385  11.8410730  46.3671637  61.7669439  10.9704745
  47.3808098  61.1319065  11.8979609  35.2408695  80.8377743  13.9261627
  34.8136568  81.6740131  13.7406135  35.1126957  80.7065868  14.8656273
  39.7394466  71.1949635  31.4125180  39.9951124  72.0566368  31.0833049
  40.4245663  70.6053114  31.0976315  17.4417913  85.7332420  18.7936938
  17.3852348  85.5009651  19.7205591  17.2695863  84.9135208  18.3304083
  13.9409685  62.5604677  16.3443339  13.9156377  62.1319437  17.1998787
  14.2633855  61.8850470  15.7476044  60.5615950  20.4740810  21.8667078
  60.6188393  21.3860321  22.1518397  59.7767162  20.4429889  21.3196874
  85.6023884  73.8715029  23.3341599  85.8485126  74.7111893  23.7222052
  84.8737812  73.5630751  23.8728857  54.4575214  74.4987249  30.3646064
  53.6515141  74.8494673  30.7435060  55.1581955  74.8993874  30.8791494
  40.1881742  58.0361557  89.2698097  39.9042463  58.8462543  89.6933174
  39.4322348  57.4528742  89.3373966  36.2279201  71.9430971  18.3025098
  37.0957112  71.5694809  18.4560847  35.7934022  71.3117599  17.7290642
  60.8458757  80.3396606   0.2156326  61.0562420  79.4518185  -0.0737168
  61.6967154  80.7658863   0.3187107  27.5746059  50.3638268  41.4487982
  28.3156872  50.9695292  41.4611053  27.2143435  50.4440498  40.5656195
  38.2698059  79.3627214  13.8132513  38.2404566  80.0694370  13.1683338
  37.4518037  78.8835669  13.6808968 111.9356537  25.3398895  83.7461090
 112.2260666  24.4644785  84.0021229 111.0773373  25.2000594  83.3461285
  11.5034139  10.7216346  87.6676083  11.0480464  10.2713168  86.9562054
  10.8324265  10.8501017  88.3380508  35.7442403  46.2269068  36.0764813
  35.4767513  45.4760885  36.6065335  35.4126644  46.0316372  35.2000332
  46.3987398  56.6894436   6.2450528  46.2946749  57.6408148   6.2278289
  45.7348633  56.3870668   6.8647838 103.2213688  45.6320667  81.9428062
 102.8144455  46.4387560  82.2588634 102.7605820  44.9334192  82.4073410
  34.1300392  70.5260038  13.3510435  35.0192761  70.5956316  13.0037093
  33.6028028  70.2419376  12.6043427  38.8567519  62.7900505   5.9763187
  38.9040375  62.0611811   6.5949821  37.9219770  62.9831982   5.9047395
  40.4678726  82.3415089  13.9926589  41.2622166  82.3737907  13.4595478
  40.7613230  82.0056629  14.8396111  16.5298212  77.5507879  17.8897119
  17.3696840  77.5740290  18.3483195  16.7640126  77.5345278  16.9617450
 108.4110165  29.4982576  91.9740582 108.0059528  28.6958408  91.6449928
 109.2191029  29.5835233  91.4681339  44.8865366  66.6202545   5.1553994
  43.9910316  66.9254017   5.0098419  45.2555466  66.5326309   4.2765433
  20.0089121  34.9112511  79.5616055  20.3623390  35.7616687  79.3006229
  19.0624142  35.0477910  79.6032095  39.7597742  97.5565434  19.6640873
  40.5372667  97.0002937  19.7122085  39.3841910  97.3693085  18.8037896
  42.3010445  70.9073591  41.1108541  41.6691923  71.3336563  41.6898775
  42.0244741  71.1571693  40.2291870  51.6115665  35.1929569  39.8615003
  51.9105530  34.9014020  40.7227993  50.8680248  35.7663465  40.0475264
  79.0221548  99.6389866  81.9562721  79.7668219  99.1780758  82.3426247
  78.2571411  99.2713642  82.3988056  76.6613960  93.1515503  74.8509169
  77.4943829  92.9344463  74.4323111  76.8917656  93.3355331  75.7615852
  64.6953249  12.5133920  50.2072096  64.1216040  12.7386332  50.9395647
  65.0314999  11.6440094  50.4249048   2.5271338  56.1707163  67.1096468
   2.1654984  56.7207813  67.8045464   2.3819102  55.2746916  67.4134254
  64.8358393  73.7371922   9.8581576  65.3497696  73.7626553  10.6652892
  64.6053410  74.6512556   9.6920425  53.7606955  72.0938444  72.0229721
  53.2489014  71.9827843  72.8241968  54.3177986  71.3163996  71.9849300
  19.9735200  84.6920967  11.4467525  20.6702209  85.2924824  11.1814654
  19.3274832  85.2508354  11.8788207  26.7042017  90.8770561  49.7801828
  25.8331203  90.9808350  49.3971968  26.6643929  90.0398540  50.2424955
  96.6974354  94.3716145  14.6119142  97.4598217  93.9771557  15.0354779
  96.9910049  95.2462196  14.3567479  52.0653296  31.5444183  38.6601591
  51.9788837  32.4936390  38.5721755  51.1640787  31.2247396  38.7024450
  52.3073864  84.3899918  44.7554016  52.1574736  84.6807384  45.6549740
  53.2591963  84.4033146  44.6548605  57.4279642  98.2592869  85.5404949
  57.0424700  98.5071278  84.7001457  58.0239773  98.9778519  85.7518291
  50.6851006  58.7194777   9.6099931  49.7975969  58.7102461   9.2515534
  50.8624983  57.8059006   9.8339057  26.6360807 100.2437210   7.1227783
  27.1662879  99.9151897   7.8488475  26.3329077  99.4556999   6.6718441
  59.3288565  99.8289108  30.1500440  59.8317099 100.2919388  29.4799805
  58.9884710  99.0546989  29.7017574  15.4511344  87.3942184  39.9965644
  14.8043036  87.6283169  39.3309522  15.3678548  88.0771160  40.6621075
  37.4472618   4.6527493  79.5886993  37.3663068   5.1371682  78.7671089
  36.5536976   4.6070182  79.9288273  29.2978001  78.5595655  12.0281112
  29.5421314  79.4226122  12.3623002  29.7450423  77.9428864  12.6076913
  27.1701264  88.1776905  33.7805223  27.1419811  88.8599777  34.4512844
  27.0997596  87.3579121  34.2696476  34.9792194 101.0895443  43.6851263
  34.1884327 100.7511139  44.1050768  34.9870753 100.6769085  42.8214693
  48.3423519  44.1535854   5.2625537  47.4044085  44.1617393   5.0717074
  48.6917782  44.9018097   4.7785127   4.7595018  36.1574483  80.9200764
   4.3488979  35.7083678  80.1811790   5.5845642  35.6913400  81.0551548
  36.5786290  83.6222935   3.8572049  37.2506833  83.6829472   4.5360994
  36.4342451  82.6825619   3.7463906   7.8742659  36.3190460  83.7414742
   7.8815556  36.0149312  82.8338909   8.6265969  36.9076538  83.8028908
  20.9186149  95.8813095   8.9852977  20.6121778  95.7214737   8.0926722
  21.6120815  96.5337849   8.8872349  44.9982166  74.2095137  17.7994978
  45.6066561  74.9380732  17.6760459  45.5108833  73.5445833  18.2591403
   4.8397484  51.9309425  84.8007202   5.5337584  51.6288900  85.3866768
   5.2448356  52.6330328  84.2915916  93.4226894  46.8748856   7.8652430
  92.5357437  46.6467667   7.5868171  93.5165310  47.7986860   7.6328254
  72.5103378  98.5897541  11.2306893  72.8945589  99.0271473  10.4708886
  72.8918839  97.7119541  11.2200475  54.1097641  54.4131184   0.6803375
  54.1300344  54.7571278  -0.2126792  53.9732265  53.4719896   0.5714214
  42.6309776  58.5812616   0.2512270  43.2540560  58.8260031  -0.4329558
  42.3330641  59.4156742   0.6134913  98.5801029  10.9694004   4.1154793
  99.0192318  10.9560001   4.9659020  97.9211712  10.2776837   4.1752428
  94.2168999   6.9954717  45.5779934  93.6105347   6.9685119  46.3181496
  94.3610859   6.0763580  45.3528929  33.0427003  74.8104572  12.2447336
  33.9020157  75.1469040  12.4989259  33.2305074  73.9804411  11.8065178
 111.7814159  40.2925634  86.2348270 112.6459694  40.5898809  85.9513092
 111.7658520  40.4645348  87.1763229   2.6985127  82.6245880  26.1106634
   2.2449443  81.7833138  26.1632562   3.6272117  82.3999977  26.1681795
  71.0299397  64.1035986  32.6280904  71.9358397  64.0251970  32.9271436
  70.6552935  64.7925138  33.1769633  39.4234324  66.2639761   3.6720511
  40.3241587  65.9448767   3.7276876  39.3704867  66.6832447   2.8131917
  50.4145861  89.0291786  26.2125731  51.2447977  89.4384384  26.4564633
  50.4439974  88.1648540  26.6228271  58.7316084  79.2151690  45.6831884
  59.1963768  79.1893911  46.5195847  57.9413509  79.7241545  45.8639002
  52.7124166  83.2592583   9.8019511  52.0453310  83.5260677   9.1694653
  52.9284096  84.0625763  10.2755034  68.0278397  37.1430755  15.2291405
  67.3337317  36.4917874  15.3304815  67.5871134  37.9838753  15.3518081
  16.4785075 102.5417709  37.2366238  15.7961237 102.8821945  36.6580963
  17.0360351 103.2978725  37.4202132  13.5029519  61.1588335  73.3153343
  12.9582500  61.0131884  72.5418234  13.7619281  62.0784330  73.2562017
  39.3440938 100.0720406   2.4899785  39.1032362 100.9349155   2.1528426
  40.2770090 100.1453972   2.6912746   5.8219969  68.7487125  29.9480343
   5.6340206  68.4383392  29.0622783   5.3881168  69.6003151  30.0005341
  43.8902998  65.6523943  13.5892010  44.4814968  65.5510187  12.8432500
  43.9142656  66.5883446  13.7883365  39.0629625 103.9399815  25.4707146
  39.0117335 103.5492039  26.3430142  39.3849945 104.8281384  25.6246781
  13.8988900   1.7002393  40.1606846  14.4711542   1.6614930  40.9270048
  13.0171490   1.7820279  40.5241060  39.0762472  79.8698711  16.4991570
  38.1367826  79.8339796  16.6790068  39.1709757  79.4628429  15.6380033
  42.1959352  93.3007050  37.5974131  41.9563293  93.6001682  36.7204046
  42.4427462  94.0991879  38.0640435  64.5930004  36.5041041  86.2709713
  65.0690746  36.5387487  85.4412746  64.0484428  37.2913027  86.2676907
  25.6693745  61.2279701   8.7072194  26.2708211  60.5535030   8.3916426
  25.3110909  61.6208124   7.9112661  84.1726971  30.7624245  69.3534470
  83.4770966  31.0202408  68.7485456  83.7401962  30.1873755  69.9847078
  92.6306534 101.1283493   2.9977986  91.9258213 101.7689419   3.0931228
  92.9778099 101.0206509   3.8833040  22.9014826  40.8935642  89.2547703
  22.7173305  40.8082724  90.1902103  22.2728562  41.5457535  88.9453983
  26.1698318  92.7190399  43.0143452  26.5776515  92.3464775  43.7960815
  26.5159941  92.1960449  42.2912407  24.4418383  63.4117365   3.3230633
  24.0637660  62.6966572   2.8112489  24.6163607  64.0997314   2.6808518
  30.6149626  71.4972067  35.8350897  30.4353428  72.3761034  35.5011630
  31.3862181  71.2085867  35.3471422  86.8275833  12.2468722  73.9489126
  86.9731808  12.9617894  73.3292913  86.2078094  11.6678655  73.5052347
   0.6391151  29.8880315  68.6236525   1.3940775  29.6632242  68.0798483
   0.9706405  29.8509097  69.5208406  19.6469474  90.2136898  23.1145597
  20.5071449  90.0041580  23.4784150  19.1840923  89.3760395  23.0963445
  69.7508717  61.1809635  19.0321743  70.5574274  61.6601276  18.8421762
  69.3099356  61.7087126  19.6979690  36.1584353  34.7205639  71.8955564
  35.9551835  35.1683736  72.7167702  35.5089903  35.0515509  71.2751532
 102.2828484   4.5781925  86.6615200 102.7898312   3.7727815  86.5589809
 101.3721657   4.3030718  86.5556812  64.0899181  77.5459003  26.6589832
  63.1941605  77.3662043  26.9445634  64.4986582  77.9770136  27.4095201
  31.0709357  22.2205234  85.4987431  30.5263281  21.8417358  86.1887836
  30.9116769  21.6648602  84.7357845  68.4957457  63.0210590  17.0413196
  68.3973789  62.3047256  17.6685512  67.6142550  63.1584024  16.6944230
  74.4864941  80.5085278  36.0421920  75.2407551  80.2947712  35.4929805
  74.8682880  80.8405399  36.8547392  25.7640338  71.3153982  17.7912676
  25.8701444  70.3651762  17.8365159  26.6470981  71.6475868  17.6297736
  78.7458992  21.1564827  25.4347968  78.1160259  21.5545630  26.0356545
  78.7653065  20.2328968  25.6854820  49.8320341  83.0782890  13.4211373
  48.9503050  82.7086067  13.4670568  50.4010296  82.3821449  13.7495542
  59.0179443  81.7496967  49.2371416  59.6269560  82.3508739  49.6660042
  58.6101627  82.2734356  48.5474730  19.8094583  87.4120903  10.4721987
  19.0293944  87.2905731  11.0134602  19.8310184  88.3516693  10.2906454
  82.5028324  93.0542469  13.4817564  83.1707001  93.4967136  14.0055883
  82.3539734  92.2243404  13.9348865  46.1674690  89.8714352   6.9247884
  45.8670044  89.4168663   6.1378193  45.4211283  89.8335648   7.5229311
  37.4744868  67.8733873  15.7675707  38.3823347  68.1751966  15.7366967
  37.5054622  66.9844198  15.4140019  68.1733465  80.0934601  50.2305365
  67.9358149  79.2506933  49.8438168  68.7588072  80.4950809  49.5885324
  24.5909309  26.7521453  22.3666143  25.2079225  26.1662722  22.8051400
  24.8682952  27.6304865  22.6270366  39.5302224  93.3340645  39.1978574
  39.5596719  92.6231480  38.5575652  39.7345161  94.1205978  38.6920309
  70.9089041   9.6338278   8.6441129  71.1094522   9.8098892   9.5633608
  71.7170095   9.8471886   8.1775510  26.5183306  94.4090462   9.1167229
  25.9107399  94.7150993   9.7900718  27.3862934  94.5946693   9.4750756
  77.9502106  79.0506411   6.3643634  77.0169067  79.1662121   6.1859900
  78.3838177  79.6813393   5.7895285  16.6144180  86.9877243  33.6716223
  16.9390118  86.1862373  34.0820932  16.7292082  86.8395329  32.7329564
  34.6999955  99.8031807  61.5370131  34.8534346 100.1060486  62.4319744
  35.4661012 100.1033401  61.0479164  95.1167202  58.8062811  79.3696642
  95.8418179  58.5620928  78.7944746  95.5018425  59.4235325  79.9916887
  34.9687290  85.6253052   3.6558613  34.1683531  85.1009560   3.6295030
  35.6756401  84.9813366   3.6985067 108.6755371  80.0761604  39.6791506
 107.9226875  79.6222782  40.0578690 108.7961578  80.8455658  40.2356672
  31.5934420  43.5829210  18.7257671  31.2591767  43.5611820  19.6224415
  31.4368534  42.7002048  18.3903134   5.4687810   8.6979061  89.0824699
   5.5818659   9.6325415  89.2553902   5.4171199   8.6353171  88.1287193
  62.6663685 101.6316128  36.1880279  63.0743694 101.8909645  35.3618884
  61.7789412 101.9869804  36.1388278  41.9655657  77.4460077  20.3203964
  42.0964241  78.0293322  21.0679531  41.1370277  77.0033121  20.5041885
   7.6501459  16.2213373  87.9799652   7.7164310  17.1744370  87.9213047
   8.5554618  15.9232640  88.0682087   4.1480258  46.5275860  83.2161331
   3.9366180  46.2702370  82.3187447   3.3608067  46.3157988  83.7178040
  79.9193478  64.0038252  16.7426348  80.0309563  64.7149754  16.1117327
  80.3715801  64.3084192  17.5293624  61.8240643  72.3844528   3.6414668
  61.0433149  72.6287603   3.1445009  61.6845989  72.7646303   4.5087886
  44.0631485  74.8974991  30.3968596  43.8963652  73.9701033  30.2284765
  44.0676355  74.9706173  31.3512540   6.2807620  54.8849726  34.1127205
   5.4129422  54.4945478  34.2161155   6.7068571  54.7491980  34.9590302
  80.4240036  87.6823807  40.5677652  80.9071159  88.4123421  40.9550571
  81.0076618  86.9300652  40.6657028  28.7175322   1.3785706  86.4484978
  28.9678526   0.7349259  87.1112919  29.5451474   1.7723927  86.1724758
  53.3768988  81.0617065  38.8516140  53.0819654  80.1914310  39.1196918
  52.5730753  81.5250206  38.6161423  32.7972460  87.2508717  35.2275705
  32.4464893  88.1410503  35.2554202  32.6549745  86.9655037  34.3250418
   9.1423291  76.1252499   2.6633349   9.2278820  76.6559649   3.4553313
   8.8946974  75.2573538   2.9821840  21.0959935  67.3132944  33.7869024
  21.6537023  66.8797779  33.1409478  20.4528570  66.6483593  34.0327978
  39.5266438  67.2000122   1.1114296  40.2232361  67.7682400   0.7826373
  39.7331142  66.3364840   0.7537675  24.5089555   8.1334281  68.1159925
  25.2133775   8.2921886  67.4876499  23.7646008   7.8634185  67.5781584
  18.9935052  78.4913206  29.8803020  18.1607628  78.3140182  29.4428802
  19.4705594  77.6628733  29.8320198 104.7516727  33.3431602  80.4891205
 105.5550289  33.7391281  80.1513958 105.0104809  32.4581194  80.7459259
  58.7039471   8.0271113  15.7242596  59.5763826   8.2857978  15.4273391
  58.2722425   7.6938844  14.9376047  46.5314865  84.8626423  47.4370337
  46.8555832  84.7188091  46.5479279  46.4492750  83.9837074  47.8071022
  60.4892731  61.8151903   8.6561358  60.4453039  61.7030478   7.7065444
  59.5872879  62.0006084   8.9174324  39.8785639 102.2536182  42.3449135
  40.4533386 101.4912319  42.2768688  39.3776917 102.1051311  43.1469774
   5.5110383  95.3082943  11.7743182   4.9275416  95.6968403  11.1225522
   6.1374497  94.7979927  11.2610626  23.1630516  95.8269405  38.2314992
  24.0795040  95.5508232  38.2420111  23.0875731  96.4347363  38.9671111
  74.0770753   0.7148046  20.1232767  73.2849867   0.6357450  20.6548572
  74.0014894   0.0144357  19.4752014  38.8084674  83.8683987  22.9204869
  39.6373558  84.0569973  22.4804759  38.3061051  83.3653355  22.2795534
  61.3607836  33.6917830  24.4233274  60.5603647  33.2130933  24.6387744
  62.0645094  33.1636548  24.8002601  29.0032864  69.2352915  26.8171430
  28.6529303  68.8530064  27.6217151  29.0217590  68.5082579  26.1947966
  47.4060774  45.2044487  77.5628328  46.6158152  44.8168850  77.1866512
  47.0837116  45.9144211  78.1180382   9.3989813  30.1505542  58.0250454
   8.5197723  29.8093462  58.1887531   9.6225780  29.8275280  57.1521807
  49.8142290  60.6216097  18.1698787  50.4792309  59.9331999  18.1604660
  49.2086554  60.3792334  17.4693322  15.1724362  29.5092154  83.3431244
  14.8694766  29.6071053  84.2458248  15.8493543  30.1786470  83.2437420
  47.2208929  67.2144270   9.9746811  46.6756344  67.7993727  10.5007660
  48.1045961  67.5731850  10.0559115  17.4291813  36.2236977  87.2187042
  17.4188411  36.4963412  86.3012123  16.7637706  36.7691469  87.6381683
  15.2246678  37.6953912  62.6986313  15.6173468  38.0173802  63.5100222
  14.4678140  38.2639575  62.5567341  56.1816263  90.0167084  20.6898570
  56.3330698  90.2871609  19.7842324  56.7816448  90.5564594  21.2045312
  21.3795161  71.9342375  40.5305862  20.6415296  72.5437260  40.5190945
  21.4465642  71.6222525  39.6281457  28.1980824  40.3773785  36.3133216
  28.9217520  39.7554684  36.3892460  28.4898114  41.0047245  35.6518388
  75.4722643  24.5981002  79.5675182  75.0752449  24.5443225  80.4368401
  76.4145756  24.5628572  79.7319698  28.9664078  71.1216402  61.5233135
  28.6018300  70.5948973  62.2345495  29.3510079  70.4817772  60.9242392
 103.2179642   6.2353003  89.4035530 103.3003807   5.2919388  89.5432281
 102.2934914   6.4218044  89.5672512  42.3596811  53.6277866  20.2693129
  42.6110649  53.0019712  20.9485698  41.4248753  53.4722614  20.1344728
  33.8491869  84.5347691  29.0348721  34.0868115  85.4197979  28.7582994
  33.0496764  84.6508217  29.5482421  14.5877910 102.4412632  58.2632446
  15.4046869 102.9382324  58.3072233  13.9490342 103.0610752  57.9110289
  14.1549134  27.4388647  74.4549847  13.9120996  26.5196037  74.5655870
  13.3234048  27.8905392  74.3107080  67.0570755  77.7897024  24.1005921
  66.9748926  76.8360519  24.1060495  67.4954987  77.9970503  24.9258351
  80.3398132   2.0116197  13.5855925  79.7435093   1.4559387  14.0874588
  79.8975182   2.1411288  12.7466452  82.5696278  77.9244804  38.5439968
  82.2592640  77.8211403  37.6444268  83.3878994  77.4287081  38.5734916
  55.6252766  83.6756706  16.4598382  54.9085712  84.1815853  16.0769391
  55.1948023  83.0673122  17.0605242  31.1135125  92.8882122  48.4230757
  31.6050458  93.0359077  47.6151037  30.7258081  93.7393951  48.6265516
  44.3035173 106.3926792  32.8068376  45.1508045 106.1498547  33.1801534
  43.7814045 105.5919743  32.8568864  40.3083849  68.7908983  16.1239266
  40.6564856  68.1530142  16.7469585  40.7891083  69.5968533  16.3125312
  57.0759249   7.3692340  13.5606289  57.4221277   7.9917580  12.9212224
  56.1367464   7.5519657  13.5885775  29.8164535 103.7078476  31.0281277
  29.5235729 104.3526077  30.3841305  29.0428877 103.5377312  31.5656114
  53.8119984  97.0398045  22.0518661  53.1851721  97.7568722  21.9563031
  53.3327532  96.2627983  21.7640805  53.1813335 102.4771404  13.3765900
  53.5226154 101.6061783  13.1736624  52.2324371 102.3586845  13.4189093
  27.9527807  87.9814243  29.6070862  27.7715135  87.4584675  28.8261294
  27.1613336  87.8995323  30.1391912  68.9660168  74.4830894  58.5297489
  69.8790407  74.5546103  58.8081455  69.0158463  74.2397738  57.6053333
  45.5844355  34.3787432   5.1364982  45.6823635  33.7994766   4.3807921
  44.6381855  34.4531775   5.2601928  87.7941036  20.4958463  38.7993503
  88.6725616  20.8231449  38.6058974  87.2065926  21.1233211  38.3782315
  49.2591953  73.2222652  35.4424310  49.4356489  72.8180456  34.5929003
  49.7529745  74.0420818  35.4247761  50.2832794  82.2164822  72.0108795
  49.5420551  82.4801254  71.4656162  49.9681187  81.4493847  72.4888611
  67.7858782  88.2128716  24.3509698  68.0235958  88.8728237  23.6996770
  67.2293568  87.5963497  23.8751364  29.6469903  84.5650482  62.8769064
  28.8041759  84.3585205  63.2809448  29.9990082  85.2788830  63.4086561
  42.0937872  73.3114672  23.5482383  41.4367485  73.0609894  22.8987789
  42.2731447  74.2335224  23.3641791  59.4440556  86.8423271  53.0490541
  58.4897804  86.8649864  53.1202936  59.7482252  87.4682713  53.7062454
  91.3347244  93.4864712  32.5003409  90.9778118  92.9901409  31.7637920
  90.6140041  93.5345745  33.1284261  52.8972054  87.3186874   3.9547586
  53.3375740  88.0776501   3.5722923  53.4722567  86.5808105   3.7520581
  95.0655842   2.1806678  43.8151169  95.8026791   1.9552079  43.2475948
  94.8898792   1.3797951  44.3090391  72.2147799  18.2305527  33.9012527
  72.8654194  17.6086068  33.5755515  71.3778257  17.8877199  33.5878658
  65.8483839  88.6344814  40.3829288  66.6581869  88.1252956  40.4172564
  65.7528830  88.9923573  41.2655592  69.5377970  82.1110344  27.6132488
  69.4903564  82.0062542  26.6629839  68.7771130  82.6488400  27.8331804
  30.1419091  93.1587219  26.2118244  31.0462356  93.2072735  25.9018707
  30.0637388  93.8798904  26.8363619  66.3772345  75.1678276  29.7584748
  66.4095545  75.6730747  28.9461255  67.2121000  74.7002602  29.7831011
  61.2517977  82.8096390  50.8521175  62.1609402  82.5203037  50.7748222
  61.2536478  83.7010193  50.5033064   9.7036135  29.9265265  78.6829233
  10.3699470  29.8582506  77.9991293   9.0061027  30.4485083  78.2863760
  56.9024658  87.5754070  27.7127242  57.4799156  87.6562500  28.4718347
  56.1056805  88.0407906  27.9672527  61.6735029  67.8733444   6.7782128
  62.2228813  68.6415195   6.9341838  61.1256504  67.8078890   7.5603944
   6.0046703  12.3330808  83.8803291   5.8698797  12.6924276  83.0034447
   6.8443739  11.8768466  83.8257408  34.3711066  83.8439941  42.6963663
  34.6794987  84.7250271  42.9083014  34.0813875  83.9041615  41.7860508
  47.9697132  96.5049267  24.7129846  48.6309481  97.1423054  24.4432712
  48.2005358  95.7055283  24.2397809   9.4237429  11.4360356  10.4214692
   9.7781944  10.6117296  10.7548070  10.1949787  11.9763517  10.2497518
  49.4545126  81.2467766  35.0216579  49.0186167  81.1073303  35.8623600
  50.3885794  81.2256145  35.2297544  75.4133987  15.1901555  44.5479012
  75.7806587  14.4765425  45.0695419  75.9789658  15.2391255  43.7772083
  35.8486128 104.1108131  62.8947401  36.6446328 104.0341377  63.4207678
  36.1622477 104.3185616  62.0145702 103.4081745  34.6390700  46.2913179
 102.9957962  35.4900265  46.1428404 104.0551758  34.8029160  46.9774532
  22.6583481  66.7133617  83.5304928  22.6584578  67.6524973  83.7155819
  22.7420878  66.6568279  82.5786400  37.3147964  80.6889820  28.3393145
  36.9232774  81.5598774  28.2724190  38.2584357  80.8493137  28.3309484
  28.0415845  34.9984050  76.7455912  28.0457973  34.3660474  76.0270262
  28.8029337  34.7633266  77.2759819  56.0357666  92.4127960  35.2462435
  56.3634777  92.2936821  34.3548107  56.7386818  92.0827961  35.8059239
  38.2803369  74.6940899  60.3285217  38.8509822  74.7041512  59.5600843
  37.4435139  74.3642902  60.0011206  30.6071925  85.4162502  57.9386330
  30.8379579  86.1653709  58.4879923  30.6052136  84.6706390  58.5388708
  56.8592453  82.5795841  60.9981823  56.8979073  82.0134830  61.7690754
  56.2607718  82.1306229  60.4011154  21.6678596  99.5400810  50.6908321
  21.1836004  98.8787556  50.1964951  21.1911869 100.3547478  50.5316925
  22.8334975   6.8852609  91.2352562  23.4118938   6.1640877  90.9870625
  22.2128534   6.4938486  91.8499374  97.8865814  26.6397190  21.3058972
  98.0670166  27.5270057  20.9954095  97.0833206  26.7244220  21.8195438
  55.9840155  97.0882702  26.2678242  55.4216766  97.2277641  25.5058861
  56.8738556  97.1940994  25.9313560  48.9391851  84.0750885  22.1438026
  48.9911795  85.0059414  21.9269109  48.0012608  83.8844872  22.1579552
  44.7516012  84.5547390  12.4246681  45.0447464  83.7561035  11.9859374
  44.9457169  85.2552032  11.8018532  84.4171143   6.8040800  27.1522212
  83.9834881   5.9722006  27.3424244  85.3499889   6.6176164  27.2581124
  68.0791950  77.2587681  35.6214786  67.2333336  76.9205427  35.3276062
  67.8799963  78.1239891  35.9791684 109.6629524   1.7608944   9.5370102
 109.8412991   1.9302697   8.6119497 109.2531204   0.8959319   9.5474601
  79.7630501  12.9943740   5.4872644  79.9802780  13.7222219   6.0697436
  78.8972282  12.7063584   5.7764637  41.5690327  59.7837114  24.9193120
  42.3580694  59.8746109  25.4535317  40.8875561  59.5267248  25.5404234
  64.8611736  74.9578667  42.3618317  64.4212389  75.0704432  41.5192080
  65.5671835  74.3369293  42.1823454  36.0225677  87.1494961  23.1134939
  35.2904058  87.6733875  23.4386277  35.7712197  86.2448978  23.2999325
  60.4361391  80.9374142  12.2817647  60.8050728  81.8054867  12.4447358
  61.1987066  80.3649998  12.1976709 108.1760025  17.4930191  81.5598679
 108.6208344  17.5341761  80.7133102 107.2980785  17.1720898  81.3537693
  53.9644194  69.5819950   9.4001120  54.0835190  69.2504978   8.5100806
  54.6542549  70.2370834   9.5060188  93.6559582   3.6703929  48.8869762
  94.0223217   4.3719444  48.3486176  92.7157307   3.8489002  48.9056015
  93.0197716  24.6177745  10.3326750  93.4829998  25.3505230  10.7385516
  92.3125172  25.0277925   9.8347759  87.2712231   6.5454566  47.0986557
  86.5834045   5.8802044  47.0745850  87.1448326   7.0498294  46.2949991
  50.5888939  78.2794237  49.4353962  50.1436806  77.8154373  50.1444340
  50.4294872  79.2054367  49.6179390  58.7869883 102.2181511   4.1661274
  59.0923119 102.4437332   3.2874221  59.5119572 102.4621201   4.7415698
  44.3514109  18.1539667  27.4497938  44.2671776  17.3952591  28.0272889
  45.2529144  18.4507132  27.5741577  35.9790397  63.4891796  10.6423306
  36.4768672  63.5211706   9.8254001  35.9744763  64.3936491  10.9556067
 105.0265503   9.1589838  25.8612537 105.1248837   8.5711128  26.6102314
 104.6167469   9.9438351  26.2249827  40.9801054  84.1249752  28.4646034
  40.5475903  83.2868862  28.3010173  40.3793430  84.5958233  29.0422058
  41.1848927  28.6980247  71.0468960  42.1076393  28.8663697  71.2377739
  40.7270288  29.4708014  71.3776636   4.9482602  40.3187561  74.7527981
   4.9888101  40.5567884  75.6790447   5.6402820  40.8368731  74.3418360
  28.3286333  57.3088837  26.0206366  28.3935952  57.7550793  26.8649817
  28.9159107  57.7988005  25.4450321  31.7690444  57.7681255  81.2654305
  32.5695896  57.6180744  80.7625866  31.0939193  57.2825909  80.7914066
  55.6656313  92.1278477  11.2394953  56.4942741  91.8356133  10.8597827
  55.0601387  92.1579361  10.4987490  74.5531988  96.0851669  17.6557124
  74.4954920  96.6598225  16.8923807  74.5161486  95.2002621  17.2926760
  25.4918027  49.1983080  87.4847507  25.0072813  48.5461044  87.9908180
  25.9870052  49.6901941  88.1397820  32.9871607  62.6742125  90.7513618
  33.6016679  61.9561958  90.9032345  32.1797228  62.2432041  90.4711628
  58.6742878  84.2146111  15.6211698  58.8099289  84.9402809  15.0118816
  57.7686596  84.3143463  15.9146225  12.9539526  26.1828279  56.2794018
  12.2020757  26.4303303  56.8175983  13.7149668  26.3844252  56.8238735
  33.9178109  80.5931473  16.5315700  33.1308699  80.0954914  16.3095593
  33.7105465  81.0080338  17.3689175  42.4084854 105.1002312  31.0557413
  42.1739912 105.4350471  30.1902127  43.2845497 104.7320747  30.9408545
  27.1244550  75.4603481  22.5026798  26.6014695  74.8084927  22.9693770
  27.8500605  75.6546497  23.0959511  23.2325625  90.0085545  44.9138641
  24.0203571  89.5287609  45.1696253  23.4991646  90.5152225  44.1467667
  50.2790689  78.7861109  13.8698184  50.0587606  78.5198689  14.7624624
  51.0506535  79.3437004  13.9697218  49.0598679  71.8229961  15.2524412
  49.0194225  71.2055635  15.9827650  49.5124006  72.5871181  15.6095970
  47.9966068  90.7437325  30.3800178  47.1657848  91.0826778  30.0467253
  48.1388569  91.2202644  31.1978889  51.9455004  87.6976585  11.8815231
  52.3417091  88.4790421  11.4959276  51.0197544  87.7572250  11.6455650
  88.8111115   6.5706760  38.6373234  88.8051605   5.8703053  37.9848862
  89.7302437   6.6534716  38.8914442  67.3374939   4.1440725  55.6426334
  67.7942038   3.5313186  55.0662804  66.4842558   4.2721504  55.2281284
  96.8275166  10.9534359  37.9549241  96.3725471  10.3796935  37.3384404
  96.1457157  11.2415159  38.5618782  77.9917479  81.4809799  37.2852564
  77.4889994  82.2587681  37.5271773  77.8788328  80.8833313  38.0243802
 105.5710220  26.1530304  77.9635906 104.8743343  26.7906022  77.8075314
 106.2893200  26.6682315  78.3308172  53.7510967 102.5821781  35.0952482
  53.6575890 101.6296196  35.0840306  54.5753431 102.7473354  34.6374607
  34.5123649  75.0604820   4.2292488  34.6225476  75.4540110   5.0948292
  35.3934693  74.7831488   3.9783132  93.1093788  40.3706455  86.8016338
  92.6300240  40.3283024  85.9741974  93.0613804  39.4811773  87.1520329
  95.0316715  26.8901467  15.6176031  94.3690395  27.0301867  14.9411869
  95.8338165  27.2581172  15.2469242  87.0274639  22.0953274   3.9109269
  86.3819408  21.7646885   3.2862610  87.3157597  21.3189864   4.3909374
  39.7633743  80.7357693  50.0525284  39.1023445  81.1313725  49.4844007
  40.5940008  81.0929108  49.7382975   6.4861763  57.4510193  77.7260017
   5.8882076  57.8808069  78.3375168   7.0594996  58.1530619  77.4183130
  30.1463246 101.3705540  18.3132446  30.3016901 101.0710430  19.2090058
  30.4684877 100.6568050  17.7627778  18.8566780  89.1791058  14.4762242
  19.7030902  89.0198517  14.0585458  19.0194774  89.9053669  15.0781119
  41.1756802  64.6621275   6.1209804  40.4112720  64.0869188   6.1532748
  40.8096361  65.5422115   6.0332239  50.1489830  95.4501534   6.2691009
  50.8856297  95.7597160   5.7420790  50.2745771  95.8642578   7.1229005
  16.2795711  66.3009596   8.6175299  17.0733380  66.6094875   8.1805205
  15.6387830  66.9963884   8.4692115  49.6474886  98.7152290  50.9812450
  49.7664022  97.9764080  51.5780973  48.7187147  98.6900997  50.7510662
   8.3076185  11.2463605   0.0947457   9.2264694  10.9837234   0.1492058
   8.0576408  11.4323914   0.9998069  89.4236946  96.0257626  39.7121835
  88.6775112  96.5171909  39.3687773  90.1875973  96.5478897  39.4671106
  31.1723685  64.3547201  74.4321108  31.1644816  63.5021353  74.8671627
  32.1004081  64.5454502  74.2957449  34.9303436  88.1468964  12.5468600
  35.4170203  88.6858559  13.1704736  35.5905461  87.5702190  12.1623898
  68.9271450  31.5875840  21.0183549  68.6231852  31.6312480  21.9249606
  69.8586655  31.8022656  21.0674477  99.6832848  10.7804859  30.4474902
  99.2887974  11.5723050  30.8130574 100.4898453  10.6612623  30.9489560
 104.4252396   5.8387083  81.9306183 104.0528870   5.0023580  82.2100830
 104.7410965   6.2423420  82.7390385  98.6487103  46.9560432   1.1245923
  98.3912468  47.6585627   1.7215921  98.7847328  47.3936892   0.2842376
  25.5904675  66.0871458  30.5636001  25.6514955  65.1455212  30.7243824
  26.1676383  66.2402868  29.8154998  81.1875916  67.1475983  31.5060830
  80.6777573  67.9151917  31.2470627  80.5571842  66.4273643  31.4976907
  31.0165858  84.1478443  60.2955103  31.8412161  84.5596600  60.5536318
  30.4713821  84.1904545  61.0811090  87.0810604  17.2667205  73.9947128
  87.6235962  16.4806747  74.0580797  86.8988705  17.5058925  74.9034643
 100.5112648  59.7459793  80.3178310 100.5733490  59.5529175  81.2532997
 101.2157726  59.2341805  79.9203777  73.6446142  11.4251065  30.2637649
  73.9235497  12.0623958  30.9212518  73.6853218  11.9024789  29.4350958
 109.4775963  17.6423562   1.8870135 108.8812065  16.9071567   1.7454505
 109.7623253  17.8924656   1.0080350   7.5041103  18.8819742  87.9673672
   7.7491480  19.6686101  88.4545898   6.9677818  19.2058277  87.2436905
 108.6235142  17.0665669  84.1250038 108.9078045  16.1657286  84.2796040
 108.5007763  17.1196747  83.1771946  25.0286174  41.1569309  82.6096058
  25.4058409  40.7056808  81.8544197  25.6792665  41.0481596  83.3031940
  35.8562398  78.3797073  23.8236475  36.3881159  77.7678490  23.3147621
  36.4065361  78.6102295  24.5721579  63.4388208 105.9494305  62.1498346
  62.7920198 105.4826260  61.6207075  64.2741013 105.7746887  61.7162418
  61.1852741  77.9531193   2.7430230  61.5452337  77.0689344   2.8128433
  60.8829546  78.0177975   1.8371239  42.8389978  66.0817719  29.1699433
  42.2741413  66.3999414  28.4657145  42.2536993  65.9847260  29.9211049
  41.6633224 104.5541000  13.7041938  42.0000219 104.8182106  12.8479755
  41.3162851 105.3610897  14.0844107  43.9941692  72.5945091  11.5631723
  44.8739052  72.2494507  11.7155838  43.5193825  72.4059916  12.3726606
  13.0042303   3.9737174  33.9873362  12.5197470   3.2039979  33.6889410
  12.7980947   4.0398532  34.9197340  62.4266529  88.3749676   8.2289380
  62.3074007  88.8241100   7.3921090  62.8141594  89.0360928   8.8025153
 103.5510500   0.4200429   1.3552038 103.0667980   0.5628270   2.1684358
 103.4448774  -0.5138427   1.1740369  34.5404887  56.0699654  12.0398068
  34.1046095  55.2213049  11.9622266  33.9804363  56.6724968  11.5503919
  69.0109825   2.0468311   7.9051894  69.4776249   1.2757376   7.5828648
  69.5519066   2.7867985   7.6293594  25.6445241  74.4311571  24.6817756
  25.3078318  73.5590363  24.4761753  25.2565026  74.6437311  25.5305862
  12.5449586  43.1564999  73.3190012  11.6652536  42.7963305  73.2066298
  13.1208229  42.3921108  73.3010292  50.3377914  80.1715088  23.7475967
  51.2513638  79.9184084  23.8801146  49.8447132  79.3597126  23.8663387
  42.6929045  99.3390751  29.4263148  42.8422260  98.9283180  30.2779126
  41.7925453  99.1042519  29.2017102  58.4287930 102.4302292  43.4462357
  58.7412596 101.9229317  42.6970720  57.9948092 101.7870522  44.0067816
  25.1697969  32.9582644  80.0158691  25.0430393  32.1269631  79.5585918
  25.6604719  33.4994674  79.3973446  96.1325645  15.0303078  41.4444304
  96.5897560  14.6267641  40.7066202  95.3950310  14.4453931  41.6180611
  57.1640539  92.1125984  26.0699105  57.0794153  92.5289726  26.9276381
  57.5361109  91.2508774  26.2576485  57.7307987  64.4017076  55.5635595
  58.2052040  64.1073990  54.7860289  57.5344086  65.3223467  55.3901148
  97.9037666  10.2631652   6.9113857  97.8373909  11.0847890   7.3979652
  97.9460239   9.5870554   7.5876421  89.0960312   6.9107229  16.0423243
  89.7710705   7.3522615  15.5269539  88.5539246   7.6209956  16.3856351
  84.3612289   3.7391213   7.3696929  84.5556545   4.3876010   6.6930085
  84.3193913   4.2449674   8.1812358  45.1330376  54.5353603  89.8267746
  45.0112534  54.5200109  90.7760715  46.0727358  54.4010496  89.7036457
  11.2336314  58.4066534  71.3610888  10.9438312  59.1201544  71.9295597
  12.0525539  58.7223291  70.9790611 105.1735401   3.4625807  26.3560367
 105.3748226   3.0729178  25.5052233 104.8898315   4.3533438  26.1504173
  32.6596951  52.6139259  82.2371197  33.3123493  51.9548130  82.0007992
  33.1270003  53.4469557  82.1744442  72.6098108  89.3879604  31.6866255
  72.7253389  89.0842342  30.7862735  73.4512901  89.2133617  32.1081281
  44.6460247  69.8481750  20.2077460  44.5503473  69.1932869  20.8992624
  44.9153328  69.3464661  19.4383359 109.7143745   2.6862353   4.4087774
 109.4129944   3.1590393   3.6329815 109.0149879   2.0595308   4.5940498
  64.1641855  75.9372997  17.9887557  63.9591742  75.2569628  17.3473918
  64.1613579  75.4815912  18.8305140  93.4593678  13.4529126  17.0656025
  94.1661072  13.8121486  17.6019788  92.7896881  13.1896853  17.6968503
  69.6275473  68.5563278  40.1356125  70.2572680  67.8361893  40.1685333
  68.9937401  68.2900095  39.4695902   9.4131058   2.4199840  91.1565685
   8.7517834   2.1759808  90.5089951   9.0861076   2.0589775  91.9805717
  61.0627747  81.0600471  22.0635200  61.8059778  80.7050800  21.5757847
  60.3316212  81.0223293  21.4469004  73.2422209   4.9435395  20.7295275
  72.5279951   4.5648652  21.2420869  73.5090733   5.7173401  21.2257671
  35.7632804 102.3750401  34.8198247  35.1795506 102.4842453  34.0691137
  35.1969457 102.4919987  35.5825949  99.2897511  95.9946442  65.3726435
  98.4902287  95.4695797  65.3366232  99.8941231  95.5518532  64.7769070
 111.8781376  21.2010860  26.2030888 112.6767826  21.4275599  26.6796446
 111.8145084  21.8626642  25.5142522  33.3530331  94.5834351  25.3289127
  32.4795294  94.9212265  25.1311064  33.6327529  94.1545010  24.5202112
  39.7578764  93.8225174   2.8690416  38.8651943  93.5563564   3.0892879
  40.3151321  93.2594967   3.4063652  57.1223593  89.3198490   3.4727705
  57.2957134  88.4322643   3.1591225  56.1682796  89.3715000   3.5302225
  56.2548256  95.7843304   1.4759859  55.4057455  95.6712914   1.0487722
  56.7473793  96.3522148   0.8834231  45.0451136  92.0493984  21.8122911
  45.6895256  92.0511341  21.1045051  45.3607368  91.3823414  22.4219275
  10.8796024  24.7161818  80.6069088  11.5049851  25.4121423  80.4049969
  11.0874093  24.4607806  81.5056896  96.9837666  88.7272930  86.3834763
  96.9208622  88.7123775  85.4284573  96.0763645  88.7866211  86.6823673
  14.7773671  75.2433729  31.3167048  14.0909111  74.8897266  30.7510686
  14.3717802  75.2945995  32.1822143  16.3661134  71.6634130  31.7996669
  15.5831301  71.1213446  31.8962717  16.2535787  72.3634958  32.4426723
  94.4797039  15.6607687  31.4426017  94.7582912  16.2108922  32.1747112
  94.6225548  14.7649837  31.7482066  64.5564175  93.5499001   6.3705903
  64.4937038  92.7665615   6.9171089  65.0231361  93.2586861   5.5872619
 104.9108887  99.4739151  75.0543547 105.1816368  98.5941601  75.3169346
 104.8934269  99.4436359  74.0977955  42.4292326  93.0279160  56.3664532
  42.0023966  92.6887321  55.5796862  41.9111156  92.6763916  57.0904827
  43.8947392  68.0678415  16.4496708  43.3988571  67.7603960  17.2084928
  44.8115110  67.9643345  16.7047071  10.8499992  44.5398140  36.9916487
  11.6473305  44.0153122  36.9182038  10.5568159  44.6577501  36.0881186
  74.2030048  14.6608722  34.7879195  73.5980940  14.8566902  35.5034399
  74.2362261  15.4681504  34.2746663  16.8513989  52.5636625  58.4181833
  16.0341489  52.2402334  58.0390692  17.4818254  51.8600464  58.2641792
  81.1852932  65.3351498  43.5908842  81.3949585  66.2563610  43.7446451
  80.2658844  65.2532482  43.8442802  35.2374959  95.4130268   3.5926744
  35.0577569  96.0981655   2.9488474  36.0266638  95.7107258   4.0452480
  21.2221098  93.1766224  89.2067432  21.2338662  93.1126213  90.1617241
  20.2977896  93.2906532  88.9857006  91.8615492  -0.1939326  37.2404575
  92.4781759   0.5182809  37.4100113  91.2213762   0.1822347  36.6363764
  58.2352734  82.6816368   2.4599864  57.4090767  82.8097534   2.9260525
  58.8756657  83.1819439   2.9657778   1.6442758  74.8351192  43.4036207
   1.5228572  74.7841549  42.4555206   1.0024246  74.2212772  43.7606287
 100.6040192  65.1684237  75.9928989 101.4326000  65.4947042  76.3439369
 100.8432388  64.3766928  75.5110645  71.2550926  77.0441914  19.5096898
  70.3046513  76.9398737  19.5545542  71.3830709  77.8991365  19.0986919
  63.7977648 100.3071690  26.3830686  64.4857597 100.7357121  25.8739114
  63.0302429 100.3251839  25.8113909 104.3814468  14.6729672  29.6709585
 104.9821854  15.4180527  29.6846676 103.6052418  14.9994707  29.2158294
  90.7954216   0.4216062  39.7190928  91.0226250   0.0279479  38.8766885
  90.1954269   1.1335057  39.4967437  95.9602833   1.5486985   5.2871001
  96.8584061   1.3508356   5.5525345  95.9987831   1.6010095   4.3321067
  42.2818422  92.8692436  32.4140620  41.8675280  92.5136471  31.6278505
  42.7672148  92.1315765  32.7835202  44.1942406  78.5789537  35.8356166
  43.5350275  79.2690086  35.9097576  44.7553968  78.8604259  35.1130438
  47.6143408  85.9441090  18.4118092  47.2717381  85.7160187  19.2760015
  46.9732523  86.5585995  18.0545485  66.9317389  78.1322289  49.0390301
  66.8221712  77.6739454  48.2058430  66.9125938  77.4385023  49.6982813
  47.5852346 102.1855640  29.4425559  48.4194708 102.5605488  29.7248077
  47.4770069 101.4054585  29.9865842  37.0245981  96.2119007   5.4083049
  37.5765872  95.5167007   5.7664067  37.6426721  96.8392372   5.0332487
  69.3499565 102.5530624  39.3632388  68.6126566 102.8334236  39.9054670
  69.0297508 102.6312733  38.4645820   0.4353772  10.2722681   3.0686533
  -0.4470750  10.5408537   2.8129753   0.8985360  10.1513410   2.2397432
  85.3157806  16.2313354  11.1094141  85.1406479  17.1449876  11.3347995
  84.5430279  15.9536219  10.6175244  64.3549585  11.9162333   1.0502484
  65.2072477  12.0765221   1.4553992  64.1279697  12.7473092   0.6330915
   7.6272506  32.3521614  10.9762442   7.0901459  33.0677032  11.3164639
   6.9945914  31.6990280  10.6772625 102.6581573   6.6924840   3.8727829
 102.7231789   5.8531326   3.4172690 102.0076084   6.5429193   4.5588204
  14.6853292  45.7208538  81.2266922  15.3387702  45.0765514  81.4989471
  14.1453624  45.2582741  80.5858517  96.5697956   4.3632227  31.7483211
  96.2542534   5.1403427  31.2870717  95.9980774   4.2896336  32.5124907
  90.2974415   0.5984816  52.6546144  90.8718109   0.2494966  51.9730425
  90.8239555   1.2675048  53.0921316   5.3588593  59.7824526  27.7912593
   5.4125702  60.6443501  27.3783684   5.7163811  59.1811800  27.1378946
  75.3361273  11.3383818   5.3594542  75.9694767  11.5349174   4.6691859
  75.7824039  10.7040882   5.9204704  74.1313696  76.8936539  19.5797884
  74.3539953  76.9498873  20.5090404  73.1816912  77.0105219  19.5535195
  40.8766413  95.4327011  31.7239213  41.4139748  94.7307301  32.0909905
  41.4364529  95.8431911  31.0648775  32.8442478 100.0265598  34.7689915
  32.0512533 100.1036453  34.2384744  32.7222800  99.2175770  35.2658939
  74.7249269  31.9696212  36.8160391  74.9328041  32.7343392  36.2791729
  75.4503536  31.3644409  36.6619420 108.7254906  26.0038590  21.3903236
 107.7902126  25.8259583  21.2911344 108.7633419  26.8811607  21.7712951
  56.6028881  51.5034914  16.7686892  55.6651735  51.6952896  16.7804682
  56.6829729  50.7343626  16.2045419  45.4322338  92.5282860  17.9585886
  45.3121042  92.8489590  17.0647371  46.0683250  93.1299305  18.3454275
  24.5820141  65.5178738  80.0999355  25.1255417  65.0403929  79.4731760
  23.7571669  65.6661272  79.6374607  69.6497393 102.5633621  52.0495319
  68.7847757 102.9732704  52.0425272  70.1235485 103.0157948  52.7474165
  68.8527918  18.5269833  61.1709976  69.4511700  18.6104167  60.4285622
  68.0943727  19.0581036  60.9282255  52.8699970  91.7707825  31.3950109
  53.6120749  91.1940956  31.5766215  52.9420948  92.4667931  32.0481586
  35.9507895  14.3145645  38.8177109  36.2312269  15.2196956  38.6823463
  36.2422252  14.1036355  39.7047329   5.2942789  35.1551652  30.2690887
   4.4281733  35.5029345  30.0566053   5.8556694  35.4579878  29.5553875
  84.0321922  12.6119053  18.0206990  83.6201859  11.7905211  18.2886624
  83.2989979  13.2029927  17.8496349  54.1870975  78.6534595  22.0625973
  54.0745258  78.1725645  22.8825378  54.9044418  79.2622948  22.2385573
  58.1432581  94.5614338  30.4935980  57.7768660  95.4167652  30.2690959
  57.7392101  94.3405819  31.3327646  86.1039925  12.9468250  27.7033973
  85.5634117  13.7367308  27.6958919  85.9783173  12.5623333  26.8358707
 102.9384518   1.6737486  13.5308361 102.4953556   2.5072137  13.3719981
 103.8668442   1.8675877  13.4014392  12.1006179  11.0976911  45.5158663
  12.2503138  10.2580357  45.9503794  12.6118970  11.7258668  46.0259867
  93.3813000  24.9797606  24.7936678  93.9376163  24.2018676  24.8339915
  92.5879955  24.6839881  24.3471122  84.3348217  29.8644900  24.7298169
  83.7459469  29.1332746  24.9163127  83.7557602  30.5721617  24.4467473
  26.8335986  91.7221546   9.8846209  26.0069609  91.8074322  10.3596270
  26.8428016  92.4675369   9.2841691   5.3654897  15.7620096  35.2479577
   6.0775578  15.5573034  35.8540010   5.7760620  15.7504523  34.3833613
 111.8319798  29.0915370   2.7957195 111.4961243  29.5610237   2.0321657
 111.0584545  28.6846948   3.1860620  47.9117250  86.7513752  23.8475537
  48.6405182  87.2989464  24.1395426  47.6777983  86.2333488  24.6177244
  80.6838322  11.0768580  12.6346302  79.9549007  11.1303222  12.0165467
  81.3564873  10.5796611  12.1692574 107.8902817  20.1800084  91.3501549
 108.1914234  20.7431149  92.0632172 108.4437943  20.4185057  90.6065273
  31.5287542  98.3650208  26.5687251  30.9424591  99.1207695  26.5323067
  32.3415971  98.6729336  26.1678410  89.3436241 103.8802624  22.2230554
  90.1713848 104.0432072  21.7708540  89.5922661 103.7496853  23.1381297
 101.9780254  26.1366844  32.0557022 101.5738297  26.2616873  31.1970806
 102.9184628  26.2009931  31.8893576  30.2247453  92.1985722  30.1890421
  30.5367017  91.3246155  30.4237986  30.7616878  92.4507809  29.4378328
  90.8730221  37.4602962  21.3100505  90.2019882  37.7247024  21.9393682
  90.4768467  36.7341447  20.8284044  57.9916430  83.0199814  25.3092623
  57.1602631  82.6293468  25.0401068  58.4239054  82.3352146  25.8196425
  41.5299845  89.5000076   4.9488798  41.5514660  90.4434490   4.7886062
  41.1446381  89.1307831   4.1542640  22.9440784  39.9235749  83.6695290
  23.5884094  39.2279053  83.8003445  23.3915305  40.5634356  83.1158161
  47.9109240  22.3174143   6.2384731  47.6843548  23.0059505   6.8636239
  48.8663769  22.3449874   6.1876506 108.8950348   0.1868895  14.1013110
 108.0428219  -0.2112675  14.2786372 108.6867046   1.0563971  13.7595689
  58.0467463  37.0341086  16.2331200  57.4289417  37.0815802  15.5035353
  58.1388950  37.9399920  16.5282667  96.3101196  10.9376502  32.8043151
  95.4628468  11.0064483  32.3642898  96.7695332  11.7430556  32.5666404
  42.2021198  99.8118019  11.8442380  42.0850611  99.9083710  12.7893329
  42.3125935  98.8703060  11.7115438 109.3135738   4.9657550  42.4819803
 110.0119114   4.4956037  42.0264387 109.7642040   5.6674570  42.9518509
  28.7789416  42.5053120  81.1403561  28.1151581  42.9735804  81.6466618
  29.0724635  41.8035555  81.7214012  63.5721493 100.5485725  15.0098658
  64.2989731 100.8125877  15.5740094  63.5488796 101.2138939  14.3220901
  36.1202550  86.1050510  27.2470379  35.8276343  86.8616962  26.7390108
  36.9023085  86.4123344  27.7055168  12.5069404  95.6497288  10.1044190
  11.9801950  96.3190460   9.6676373  12.7191257  95.0228882   9.4128436
  15.7944322  38.1197143  28.8613772  15.6389380  39.0638208  28.8881111
  16.4990294  38.0110121  28.2226610  18.3513176 100.2598953   5.3920734
  17.7056897  99.6652699   5.7739311  18.3919144 100.0087738   4.4692928
  33.8557053  89.7948933  48.2905197  33.4242010  90.2043152  49.0404558
  34.7554612  89.6484661  48.5824585  10.7596099  57.2874641  79.2236233
  11.5733385  57.4309349  79.7068357  10.8403873  57.8428745  78.4482384
  17.5921929  96.5569115  27.6503420  17.6628053  96.0769558  26.8251801
  17.2849917  97.4270058  27.3958015  69.1235971  30.4607773   6.5664160
  69.1578627  30.5265093   7.5207412  68.1956196  30.5580735   6.3528037
  78.0029011   3.9457229   8.1655663  78.5004520   4.4667256   8.7958276
  78.3776855   3.0674529   8.2319570  37.4121618  83.1506824   7.3087710
  37.7656221  82.3158264   7.0016718  38.1830192  83.7015533   7.4449635
  78.8923168 102.5999928  57.7478075  78.5446262 103.4219837  57.4018717
  78.7960148 102.6797390  58.6968040  64.1520119  21.0864043  10.0738084
  63.3282280  20.7343125   9.7367048  64.6459055  20.3152466  10.3524029
  15.0552058 100.2891731  30.9325719  14.9896681 101.1913872  31.2455368
  14.3601811 100.2112770  30.2790403  60.8938265 101.3364601  28.6210275
  60.4716825 102.1153545  28.2586145  61.7944765 101.3808632  28.2999587
  70.2917147   1.1232124  41.5567780  69.9338722   1.7319939  40.9105873
  69.7314358   1.2328227  42.3250961  85.4773617 105.3395844  13.1196797
  86.3964653 105.0838852  13.1977940  85.0036526 104.6935081  13.6435175
  81.4540291  15.1001465  41.6032028  80.9731483  14.7699952  40.8442640
  80.7736492  15.4014897  42.2052956  31.1093497  75.1473618   4.8214176
  31.4906001  74.2828655   4.9747920  31.2476254  75.6192398   5.6426626
  53.4966660  81.4018726  91.3662815  52.6228523  81.5307713  90.9974003
  53.7873554  80.5638981  91.0063839  36.2474847  31.1268425  18.7402177
  35.7205296  30.3875995  18.4367895  35.9593678  31.2724805  19.6413350
  67.7686644  19.8198652  12.1073425  67.0594883  19.4953203  11.5523899
  67.5578690  20.7425666  12.2502267 106.9911289   2.8848436  66.9046926
 106.8234730   3.4091532  67.6877785 107.8177547   2.4383454  67.0878553
 107.2147369  12.0535219  80.5072403 106.7404079  12.8512120  80.7416153
 107.9862213  12.3641050  80.0333500  19.7735858  58.1850863  39.2503333
  20.2313781  58.9678240  39.5568871  20.3415990  57.4590349  39.5080948
  55.1043415 103.7453461  80.1476574  55.2925205 104.6643066  80.3382778
  55.7861280 103.4847069  79.5284128  36.1262822  32.3404598  36.4695477
  36.3863492  31.5049076  36.8574309  35.2323890  32.4814296  36.7814970
  54.0570259  63.2545233  77.5750780  54.8853159  63.6236858  77.2686625
  53.6175251  63.9832735  78.0132437   2.0902213  30.4750395   2.9338959
   2.2802152  30.7951474   2.0520432   1.1428749  30.3381896   2.9400918
  54.2313385  66.1695766  81.6247082  54.8142624  66.7830706  82.0719910
  53.6928082  65.7981348  82.3234558  41.6097021  26.0916162  11.5275908
  41.2222338  26.5491843  10.7814455  42.2662973  26.6998792  11.8668985
  39.2804003  71.2600899  22.4373817  38.7907839  71.5410376  23.2104111
  39.0461707  71.8959713  21.7613482  94.4442211   7.7144434  91.6656278
  94.8241160   6.8928959  91.9770288  94.4012783   7.6132299  90.7147633
  35.0034022   4.3888175  23.2457685  35.6256270   4.4440085  23.9710426
  35.3936672   3.7558725  22.6430202  27.2262168  20.7714653  49.4690990
  27.7942228  21.2834930  48.8933992  27.7392268  20.6534982  50.2685595
  27.4478984  52.3687792  15.4530048  26.6609478  52.4701929  15.9884083
  27.7118564  51.4582491  15.5852461  25.9982157  25.8465338  15.5574644
  26.6553903  25.8287120  14.8617351  25.7727981  26.7721629  15.6503522
 111.4403534  58.6201191  25.7435417 111.8232822  59.3504190  25.2574754
 110.5511475  58.9089870  25.9486961  37.6985645  47.0749474  10.3283644
  38.2629585  46.9928360  11.0970962  36.9820452  47.6404142  10.6165910
  12.9886830  22.5569296  24.5359588  13.3435571  22.0660090  23.7948179
  13.7095964  23.1202579  24.8173428  73.4105444  76.9669867  88.8659286
  73.4871054  76.2657499  89.5129490  74.2265415  77.4603033  88.9496899
  33.0099726  31.6997504  17.9779875  33.2903647  30.8070731  18.1798267
  32.2549605  31.5887761  17.4001694  41.7292976  30.7540083  24.9143219
  41.7313910  30.8020258  23.9583278  41.6019201  29.8251367  25.1072025
  45.3281832  64.9296999  11.1467874  44.7505522  65.6254864  10.8330059
  44.9492025  64.1255379  10.7919216  29.8231959  87.3462868  71.0437346
  29.3250299  88.1359863  70.8329201  30.6221509  87.4206543  70.5218410
  14.4459462   3.1533214  28.4275460  15.3006661   2.7862945  28.6533284
  14.6248841   4.0724009  28.2287884   4.8945236  20.7125187  30.4035950
   5.4881167  20.0109172  30.1359487   5.4619849  21.3595414  30.8226204
 109.9196339  28.4809136  21.8539023 110.6296730  27.8489566  21.7411590
 110.3634834  29.3154263  22.0049644  66.3702481 105.7663812  69.7449350
  66.7157452 105.3051459  68.9806557  67.1387951 106.1687178  70.1495218
  38.3549523  67.7251053  46.6535378  38.1183457  68.1786013  45.8444691
  38.9797926  67.0543003  46.3781738  70.0923777   6.2711179  88.3237171
  70.8638048   6.1169356  88.8690281  69.4194508   5.6996918  88.6936855
  66.4971113   9.0002602  88.7530231  65.8318853   9.1411406  89.4267178
  67.3247194   9.2090589  89.1862679  71.7773151  15.4204118  87.4174976
  72.0466948  16.2417996  87.8285789  71.6322899  15.6484282  86.4992332
  34.8445582  69.4260216  27.0750141  34.9800420  69.5270348  26.1328506
  33.8939571  69.3782139  27.1765232 107.5437641  45.7815981  29.8228931
 108.4153271  45.7625389  29.4276285 107.7056122  45.7072735  30.7633781
   1.2449245   4.9905145  81.8588829   0.9114548   5.7171977  82.3851490
   0.9616055   5.1910424  80.9668350  13.9432192  45.8200121  26.8481016
  13.5126710  46.6734123  26.7973971  14.6434915  45.8659887  26.1971521
  27.4786234  15.8177066   2.0737658  26.5529847  15.7667851   1.8353687
  27.5830007  15.1680362   2.7689394  31.6519928  44.9672222  12.7293730
  30.9778380  45.5484200  13.0814493  32.0826936  44.6036768  13.5030413
  27.7730060  56.5006351  16.0256636  27.0085001  56.7630816  16.5383852
  27.5194836  56.6635036  15.1171303  12.9612386  41.6083574  28.1117725
  12.0496762  41.7879915  28.3420300  12.9904664  41.7010260  27.1595168
  76.7857742  26.0702443  73.0590582  76.3142204  26.6720963  72.4831772
  76.1924934  25.3267169  73.1659031  38.8072085  97.1853352  17.1770275
  38.0231881  97.2862530  16.6372526  39.3471098  96.5552902  16.6997576
   2.2774045 105.5561326  26.7804098   2.7460854 105.5751205  27.6148033
   1.3521497 105.5744442  27.0249486  23.5901594  35.6533504  46.5415144
  24.4842100  35.4090953  46.7807770  23.3951378  35.1219821  45.7696056
  28.0859613  38.9011502  25.4058623  27.9600310  38.3071923  26.1458540
  28.3508849  39.7293973  25.8059263  31.8415356  59.7157717  26.0592580
  31.3970852  60.5138874  26.3451004  32.5380230  59.5858622  26.7028880
  48.9741373  28.5875034  17.7781522  48.1296492  28.1489921  17.6743233
  49.5489693  27.9162407  18.1458569  50.2112913  70.4806423   8.5916597
  51.1197996  70.3837156   8.3062714  49.8293304  69.6108103   8.4744710
  93.4959507  12.2481275  88.1009007  93.6573696  11.3303304  87.8822136
  92.6778412  12.2356689  88.5976601  40.9986544  60.6152487  18.7386131
  41.8143988  60.1185322  18.6748576  40.4540539  60.2734327  18.0295253
  22.0813560  20.9136200  27.6339340  21.9366455  21.1020279  28.5611844
  22.6031375  20.1111412  27.6311755  57.4522638  52.1181154  26.7963123
  56.5407658  52.0134163  27.0691490  57.5789213  51.4499044  26.1227512
  23.0061483  21.1390352  71.2732601  22.9193735  21.1479282  70.3200436
  23.7948275  20.6219697  71.4371538  13.4781408  50.2508402  15.5735648
  14.4174075  50.4158592  15.6558895  13.4144223  49.3121719  15.3972805
  59.8096561 103.4579468  74.9218464  59.2484140 103.1094170  75.6145000
  59.2116594 103.9346218  74.3461609   0.7555919  26.1769819  27.5144958
  -0.0021050  26.2347889  26.9324422   0.4407751  25.6787014  28.2687116
  32.2833037  55.7137823  25.1337624  32.9121709  55.8533192  25.8417773
  31.7286301  54.9978924  25.4437113  40.3178883  28.5238433  15.1088011
  40.5867386  28.9489079  14.2943859  41.1325741  28.4044147  15.5969131
  92.1266651   8.1307507  75.8070421  91.4355373   7.4751115  75.7137251
  91.6721821   8.9161444  76.1117315  16.4838886  71.6593838  18.2155788
  16.5061510  72.6157379  18.1819904  16.4605653  71.4530182  19.1499782
  75.2560759  58.0270576  77.0033503  75.1953840  57.0721292  76.9775724
  75.2343130  58.2433558  77.9355335  19.1019034  66.3863516  19.9108672
  19.6185338  65.5995369  19.7369564  19.6495736  67.1064425  19.5982051
  30.2899098  63.0225372  24.7235584  30.4237890  62.4321985  25.4650521
  31.0820866  63.5592556  24.6986485  22.2493696 101.2276936  79.4872665
  21.4844322 101.5174007  79.9844360  21.9481349 101.1993980  78.5791445
  19.8314822  63.1273222  27.3138928  18.8892841  63.2925367  27.3485088
  19.9915171  62.8407192  26.4147377  29.3481040   6.0693860  27.4396729
  29.7626734   5.4919136  26.7986655  29.2173338   5.5170012  28.2103872
  54.1399336  48.8865423   1.3884760  54.7423935  49.3593025   0.8142186
  54.4874334  49.0283632   2.2690237  13.8028324  44.3817472  23.1381083
  13.9151573  43.4617233  23.3772230  12.9818296  44.6396351  23.5572505
  65.5992699 100.1261044  85.0421333  65.6516361 101.0763264  84.9393749
  64.6834898  99.9155807  84.8597622  17.3676240  37.9651356  15.0895727
  16.6854227  37.3318100  14.8665619  18.0141461  37.4578738  15.5804145
  29.6692944  88.1563187  76.2041283  30.4960704  88.6367226  76.1606884
  29.8455310  87.4298477  76.8019629  72.8118992  82.8263092  61.3019848
  73.1087208  82.2967052  60.5619574  72.2576571  83.4997177  60.9075499
  90.9531212  22.0984864   4.0749663  90.7578278  21.3329148   4.6153286
  90.5886173  22.8361511   4.5640644 105.1194096  20.7707691  76.0866261
 105.7260513  20.0314522  76.0462666 105.4575920  21.3934898  75.4431343
  70.7706547  73.1468010   6.8131661  70.5307579  72.4510860   6.2010735
  69.9361229  73.4480810   7.1723551  38.3645177  30.9633374  13.3814323
  37.9318786  30.5838466  14.1463149  38.5094929  30.2206564  12.7952266
  42.4522352 105.4581165  84.5850468  42.5175238 105.5199146  83.6320686
  43.2497787 105.0002289  84.8505592  77.6909399  39.1241789  27.5407696
  77.9094410  38.2137489  27.7397847  78.3694172  39.6352792  27.9819918
  24.9295616  94.4545841  16.0085166  24.6604276  94.4995785  16.9259989
  24.1723347  94.7783279  15.5206347   5.9341377  12.2249925  80.5637074
   5.0881922  11.9348621  80.9049320   6.0647535  11.7031693  79.7719574
  85.2063560   7.6826829  88.4494686  85.0725460   8.2151043  89.2335987
  84.3267250   7.5532186  88.0949020  93.3030605  25.6782246  86.5356541
  93.4070396  25.5794621  85.5892563  92.4246311  26.0429096  86.6433239
  64.3859291  83.5079193  73.8028765  64.0394306  83.6878204  74.6768379
  65.2965641  83.8003063  73.8414049  74.4462633  53.0356693  23.8203931
  74.2370844  52.1683121  24.1670465  75.2122974  52.8930521  23.2644391
  30.3652215  22.4952722  23.6294436  30.8961129  21.9255733  24.1860700
  29.9546266  21.9012094  23.0011654   0.5381022  67.2388268   5.6437260
  -0.4013401  67.3725176   5.7694489   0.8649683  68.0912828   5.3561342
  34.3011117  33.9459062   1.9345564  33.9694643  33.5240769   2.7272108
  35.2397895  34.0474057   2.0920832  21.4198637  67.5633812   2.0693921
  21.3654423  66.7372274   1.5890454  20.9002972  67.4156523   2.8596196
   6.0264391  23.3754921  73.9065981   5.6692451  22.5907373  73.4909010
   5.5611104  24.1004682  73.4893370  24.7186232  16.3444972  25.4575014
  24.1902852  15.9851313  24.7447968  25.4885960  15.7770443  25.4945111
  56.3308954  22.4170160  18.8279390  55.3778458  22.3316622  18.8025296
  56.5070295  22.8951049  19.6382725  47.2873876  34.8285119   1.2925705
  48.1824968  35.1575677   1.2105068  46.9828889  35.1697843   2.1334347
  35.5096316  66.0651541   3.3525386  36.0521007  66.2575960   4.1173425
  35.5254412  66.8724203   2.8384346  20.9412336  81.7429543  14.1787875
  20.3390789  81.7413998  13.4347177  20.9445620  80.8364487  14.4861162
   6.1982816  52.9935265  30.4231620   5.3587216  53.0471706  30.8797717
   6.0690361  53.5035133  29.6235132  97.5302696   0.2606865  83.9769554
  97.3575401   0.7991439  84.7492695  97.8320217   0.8820829  83.3143520
   8.6633241  66.3520622  32.5968933   7.8830522  65.8077812  32.7025533
   8.5014594  66.8497419  31.7954278  33.1219578  48.7963629  10.7034576
  32.7680397  49.6617365  10.4982734  32.7175856  48.2136536  10.0606799
  82.6605797  82.7980328  79.3014002  82.3093605  83.1595612  80.1151371
  81.9519424  82.2559738  78.9546347  28.0696797  29.5657158  34.5969105
  27.2449350  29.1785383  34.8903728  27.8061080  30.2744460  34.0100002
  16.6399646  21.2978101  89.2447662  16.6723502  21.8624949  90.0169754
  17.5569963  21.1018252  89.0527344 112.1689796  86.2570286  80.4358578
 111.7381477  87.1068096  80.3437424 111.4593124  85.6503105  80.6468105
  27.2826242  10.0505912  35.1630163  26.9345522  10.0366437  36.0545778
  26.5217996  10.2334356  34.6116996  56.5895414  73.5750532  75.3970003
  56.5301466  73.5716915  76.3523483  56.3009167  72.7005196  75.1359987
  61.8443394  50.3809929  29.2283297  61.4391947  49.6841478  29.7445655
  61.1823273  50.6122065  28.5767841 109.7896194  11.1431682  61.5036869
 110.4532909  11.7402208  61.8490744 108.9723873  11.6390741  61.5530109
  49.0799952  85.4186249  14.6622384  49.4812965  84.6481609  14.2602897
  48.3133698  85.0768566  15.1223481  73.5099506  88.5197449  13.2126331
  73.5854578  89.4160461  12.8852713  73.7908125  88.5739231  14.1260946
   1.6072345  42.6610756   1.8812481   2.3433352  42.7049160   1.2709484
   1.4191204  43.5747910   2.0956500  59.5819044  63.5108995  81.0312080
  60.2891588  63.6405373  81.6630459  60.0196791  63.5026503  80.1800251
  67.3661375  84.7404957   0.8710334  67.4858522  84.8567677  -0.0715054
  68.0567932  84.1289902   1.1265536  15.0010240  25.9698820  30.4710364
  14.5917594  26.7395353  30.0755978  14.6679902  25.9559321  31.3683248
 105.1647091  67.4394512  49.0215969 105.9966373  66.9936419  48.8622713
 105.3886032  68.3700895  49.0255499  79.5596266   7.8134018  78.6835670
  80.0557041   7.6736128  77.8769732  79.9878931   8.5603601  79.1017437
   7.5268608  84.1811085  82.2250748   8.3346069  84.4373322  82.6701832
   7.6493555  84.4707298  81.3210011  21.9292879  10.1421750  82.9678154
  22.0334840   9.5833760  83.7379551  21.5416002  10.9486389  83.3077335
  45.5756569  46.5992069  20.6705260  46.3181686  46.2752581  20.1606584
  45.9440994  47.2954130  21.2143874  51.7611694  42.6901150   3.0777746
  51.9739199  42.6023436   2.1486534  51.3483286  43.5507917   3.1486848
  24.0942049 101.7213821   6.8082893  23.5888362 101.2699986   6.1322117
  24.9950266 101.4291668   6.6691321  51.6783094  54.5088816   4.4095850
  51.6132212  53.7749434   3.7985754  50.8320427  54.5241451   4.8566109
  48.4895420  33.2380438   6.0345995  47.6786280  33.0585694   6.5104538
  48.3824062  34.1310525   5.7070482  36.4642896  59.9389343   0.9833416
  36.6340125  59.2235444   0.3704437  36.6244145  60.7335500   0.4742417
  36.1051297  59.2718697  32.8250813  36.9268227  59.0225649  33.2480502
  35.7786679  60.0036955  33.3486128  23.9556217  88.1934834   5.5780685
  23.5254622  87.3586082   5.7629454  24.5018673  88.0170250   4.8120990
  15.4694168  38.6960365  91.3738878  15.8127634  39.0836956  90.5688673
  15.9208767  37.8550960  91.4462640  43.4779692  99.3093395  82.9857349
  43.4873438 100.2370262  83.2214260  43.7589693  98.8572502  83.7812805
  14.1563988  64.6603680   1.3428076  14.3495464  64.4885349   2.2644365
  14.8016810  65.3172159   1.0812837  69.4369602  22.6999617  47.9848194
  68.7227821  23.3346462  47.9269171  69.5700216  22.4062443  47.0835638
  36.6874409  51.2354469   5.5412966  37.2204852  51.7170811   6.1738515
  36.3593674  50.4806423   6.0300362  52.0839357  51.4060450  18.5719752
  51.1989450  51.0559368  18.4697449  52.6293087  50.6357384  18.7314379
 111.5975380  73.6430311  31.0994554 112.4596691  73.8113928  31.4797425
 111.2166595  72.9666471  31.6595149  20.3521252  23.7228131  68.2044220
  20.7465386  24.3499970  67.5983572  19.4872940  24.0858197  68.3955383
 108.9097595  69.9742603  41.4577961 107.9679108  69.9231482  41.6207218
 109.2610741  70.4280424  42.2238827 100.8385372  66.3768387  16.3141537
 101.7440796  66.4926195  16.0263550 100.3551102  66.1819839  15.5113053
   2.5679821  13.4792912  79.0644646   2.2204460  12.6238251  78.8122177
   3.1917840  13.6979949  78.3721685  24.7992945  40.8125305  31.4806151
  24.5768619  41.4851999  32.1242547  24.0116382  40.2723932  31.4167142
  19.5398068  42.6662207  25.2221918  19.7789192  43.2396793  25.9503412
  19.6880817  43.1977272  24.4400525  41.6203260  62.9699278   1.4609598
  42.2813511  62.3620224   1.1297160  42.1146345  63.5967636   1.9891337
 112.5049091  27.8701544  79.2362738 111.6009820  28.1368017  79.4037437
 112.8024011  27.4975586  80.0662708  20.3809476 101.3618279  40.9388304
  20.6708837 102.2048855  41.2872934  19.8661315 101.5872097  40.1639748
   9.7644699  51.6701889  11.6753352  10.5557203  51.3247490  12.0886433
   9.0489423  51.3568163  12.2285533  61.2600088  31.5171432  91.1582661
  60.7088614  32.2921610  91.0495853  61.9466829  31.7946887  91.7646408
  46.9023705  77.4137115   8.9929962  46.2799454  77.1757841   9.6801722
  47.6229429  76.7922449   9.0968686  59.0862274  55.6817865   5.1067770
  59.0097141  56.5343952   4.6784845  58.2833099  55.2197599   4.8657465
  25.6349182  75.5774021   3.9941895  25.7824731  74.9124146   3.3216977
  25.6701326  75.0947857   4.8200652 109.2882442  22.3229551  85.5183411
 108.4948730  22.6176453  85.9654999 109.4458675  21.4444733  85.8642578
  66.7225409  82.9880810  33.7434006  66.6089010  83.8576603  33.3597922
  67.1545982  83.1507969  34.5818996  88.8316917 104.1516113  81.5587521
  88.4842205 103.9031982  82.4153614  89.3685436 104.9246788  81.7330742
  61.8970633  97.8421497  71.0494995  62.1684790  97.6711273  71.9513369
  61.0687304  97.3717976  70.9553766  91.2138653 104.9838638  72.9319859
  92.1434021 104.8178959  73.0890131  90.7647800 104.5162868  73.6362076
  16.2412655  11.2038350  82.8803158  17.1775734  11.0059261  82.8605461
  16.0203826  11.4080000  81.9715977  19.9653018   2.1933450  73.2774019
  19.1056371   2.5862700  73.1263399  20.5605459   2.6996690  72.7246332
 111.7885590  28.9253640  13.0816674 112.1648312  28.1106544  12.7486527
 110.9057331  28.9499044  12.7125537  24.8578405  63.3037043  29.3722248
  24.4033265  63.9384937  28.8184261  24.8772812  62.5013685  28.8505745
  19.9189925  21.5380478  81.4531136  19.7481537  20.9887815  82.2181892
  19.2245090  22.1965313  81.4711189  17.1554863 100.6240654  16.0231292
  17.2195303  99.7348976  15.6745374  17.3576355 100.5314636  16.9541454
   3.7583163   7.3227209  52.9937315   4.2719221   7.7788234  53.6603737
   4.3879575   7.1239746  52.3007059  47.6636600  99.2421818  73.4802771
  47.4112272  98.3252048  73.3723021  48.6203718  99.2322350  73.4513664
  56.4935827  34.8727584  34.4141388  56.9840670  35.4639554  34.9852276
  56.7684603  33.9964271  34.6838045 100.7914925  59.0071201  28.8006067
 101.0035515  58.1361294  28.4649992 100.7835293  58.9018297  29.7519660
 107.6054382   2.6568118  84.6270466 107.9714584   2.0910521  85.3068829
 107.4553013   2.0721987  83.8841343  74.8131227  62.1709871  18.0546272
  75.0088310  61.4102221  18.6015928  75.6702948  62.5408077  17.8431535
  52.8117371  55.4677343  17.8307378  53.3477831  55.0397301  17.1631277
  52.9694080  54.9596310  18.6264801  16.4123368  59.3774033   0.8190817
  17.2382545  59.0706205   0.4449505  15.7690036  59.2409277   0.1235751
  22.2194457   7.3254621  88.4899616  23.0860829   7.1687174  88.1149864
  22.3238540   7.1351582  89.4222260  20.6941175  52.2031212  27.6799798
  20.3166771  51.4005041  28.0399489  21.4137197  52.4167395  28.2739234
  77.8022718  25.4065013  84.7958374  78.2197475  26.1585879  85.2157307
  76.9967508  25.7596684  84.4181538  30.4124880  78.6220026  14.8891151
  30.6283140  78.5757065  15.8205152  29.5545769  78.2029915  14.8209381
  65.5884361 105.3866673  81.0824299  65.4207611 105.8278561  81.9151783
  65.1809311 104.5261669  81.1809635  24.2323208  53.8236809  26.5049267
  24.2949033  53.1308174  27.1623850  24.9577928  54.4138098  26.7090702
  50.3878355  58.2427597  32.3524261  50.4915571  59.1572475  32.6154613
  51.1782265  57.8096771  32.6748443   4.9770555   4.3776780  68.2767296
   4.3980083   5.1383644  68.3246088   5.6905305   4.5813370  68.8814688
  53.3349085  45.7529163  15.1423001  53.4056950  46.5250921  15.7035184
  53.0361080  45.0575161  15.7282770  83.3592415   7.2115844  56.2126875
  83.0530071   6.5207905  55.6251001  83.0225468   8.0205113  55.8273268
  68.4968758  85.6758881  75.5028677  67.7662134  86.0796261  75.9712362
  69.2564154  86.2082291  75.7393932  46.7482185  80.4450989  22.5401998
  46.9160938  79.6179819  22.9917884  46.2518644  80.9661388  23.1713724
   1.8611535  59.7812700  61.9579172   2.6165468  59.6524429  62.5315142
   1.1901708  60.1588154  62.5266600  81.6636658  99.7040653  66.2626028
  81.7892838  99.1839790  65.4689026  80.8688450  99.3475151  66.6592932
  96.4957714 102.4934292  89.4327545  96.7755985 103.0676270  88.7198448
  96.8629360 101.6380978  89.2095470  20.5302954  29.2878485  82.6453686
  21.0255289  28.9325356  83.3834267  20.3099418  28.5226369  82.1142101
  57.9877710  29.7178221   0.3969080  58.3667326  30.2777123  -0.2806935
  58.0399179  30.2410507   1.1967479 109.6352863   7.4456573  87.4255466
 109.8622608   6.5660787  87.1237850 109.8567390   7.4439681  88.3567810
  31.4823413   3.3383256  89.6379375  31.3206434   4.1855842  89.2229271
  32.3931789   3.3839732  89.9286652  58.5291433  77.2704458   0.9871905
  58.7049627  76.8622017   0.1394542  58.5918999  78.2104731   0.8179548
  11.4301789  37.5247192   5.5380034  11.8760073  38.1788135   6.0761756
  12.0491457  36.7965555   5.4842556  99.6527958  30.1451182  77.6740122
  98.9863968  29.6325326  77.2164011 100.4282284  30.0820994  77.1163702
   1.4062200  60.6080866  21.6442823   2.1957800  60.2506924  22.0506024
   1.6858074  60.8699322  20.7670712  49.6057177  30.4787469  15.8869362
  48.7498236  30.8365989  16.1227691  49.7970343  29.8419142  16.5754664
  44.5246792  82.7375317  19.5192695  44.7814798  81.8406677  19.3049598
  45.2638578  83.2734871  19.2318594  39.7209692  71.4039183  34.2100167
  39.7381902  71.2206459  33.2706833  40.4174948  70.8571672  34.5735312
   9.8693585  32.4651527  87.4480343   9.5247954  33.0919790  86.8119526
   9.0968430  32.1526790  87.9190063  37.2496438  18.6560583  71.6137314
  36.9262528  18.1760645  72.3761320  38.1978869  18.5270083  71.6339922
  99.2469215   8.7686855  74.9295139  98.6824036   8.1698942  74.4406366
  99.5172691   8.2681739  75.6993437  52.3591042  64.1279936   5.9345961
  51.4027977  64.1464376   5.8976364  52.5584173  63.7316751   6.7827922
  14.9390042  36.9489360   6.0851151  14.6539855  37.0869040   6.9884205
  14.9022079  36.0000610   5.9646302  23.9405370  35.5056167  17.0739734
  24.4540286  36.3075185  16.9764566  23.4634042  35.4248190  16.2481117
  29.9157357  72.0149231  27.6453400  29.7459698  71.0896015  27.4687219
  29.5708585  72.4723339  26.8784857  36.1821985   3.4457073  86.6777134
  36.4176369   3.8578027  87.5089645  35.5839515   4.0673810  86.2631607
  28.0696797  71.7453480  42.3498869  27.8760433  72.2799826  41.5798855
  27.3207974  71.8812943  42.9303408  80.6979179  57.7653503  25.3299665
  81.3088799  57.7684402  26.0668159  81.2284470  57.4962139  24.5800734
  88.9648914 102.1725655  86.2141705  88.6645126 102.3792171  87.0992088
  89.9192715 102.1504688  86.2842083  49.7708321  59.5805931  25.8031392
  50.4484558  59.7148323  26.4657378  50.2466393  59.2668867  25.0340962
  58.9244366  73.2384872  26.6555667  59.3241119  73.9989233  27.0777440
  58.1258154  73.5800457  26.2533545  36.4788532  64.5111799  24.6754909
  37.4280858  64.4834089  24.7955680  36.2898922  65.4271650  24.4717979
  16.5157473  55.6123590  38.0508685  15.5944657  55.8397245  37.9252601
  16.9818234  56.1297226  37.3941040  73.1226635  26.3761568  10.7656431
  73.1374121  27.3121262  10.9655833  73.4807634  25.9582686  11.5488207
  11.3717723  82.5530624   8.7934935  10.8013999  81.8581390   9.1221017
  11.5601265  83.0917645   9.5619708  45.2952099  72.5997257  15.0540125
  45.1687670  73.1858969  15.8000970  45.7974958  73.1176281  14.4249523
  30.4778004  51.5229082  17.3949325  30.0733042  52.3520231  17.1396208
  29.9996877  51.2547731  18.1796241  36.2510490  66.4423180  19.6759629
  36.7651510  65.8477259  20.2222157  35.6213689  65.8748960  19.2312527
  81.3340759 101.8043327  88.3642960  81.4993572 100.8764362  88.5313892
  82.1311855 102.2461128  88.6570168  10.6525362   0.5067708  82.8050995
  11.3656592   0.5928861  82.1724319  11.0809493   0.5689092  83.6588192
  51.7819023  97.5913620  65.2514744  52.4731159  98.1103897  65.6626558
  51.1028194  98.2288456  65.0308037  47.4161339  38.4068418  30.4190111
  47.2663164  37.8801680  29.6338987  46.6369486  38.9582896  30.4897857
  46.7285490  36.7902255  28.3699942  45.9254503  36.5669990  27.8994298
  46.9011259  36.0288501  28.9238524   2.6254261  98.0955887  69.4619417
   3.5763788  98.1691933  69.3813038   2.2944213  98.9482975  69.1798878
  55.8626604  50.6532335   6.6077006  56.7346764  50.6449699   6.2130511
  56.0261202  50.6246710   7.5504071 106.6659832  97.7033234  84.3992901
 106.3659954  98.4594727  83.8948250 105.8637428  97.2325802  84.6252155
  74.8199320 104.5815754  76.7685699  74.5886612 105.1992416  77.4622774
  73.9917660 104.1619015  76.5356588  80.2204418  21.6191936  86.3826275
  80.8585072  21.9946790  85.7758999  79.3746710  21.7563081  85.9558964
  18.7367296  73.8810444  12.0061982  19.1436934  74.5564365  12.5488377
  18.3753991  73.2550955  12.6337790 103.5111141  13.8999295  81.1974430
 103.6601543  13.7108696  82.1238708 103.1028080  14.7656631  81.1923409
  74.1676426  99.7017765  49.4850826  73.9975500 100.0211525  50.3712559
  73.4827852  99.0514374  49.3293047  45.7485247 102.2850609  78.7160921
  46.1458349 101.8457508  79.4680119  45.6954432 101.6066742  78.0428886
  48.4233475  54.6442556   4.0931609  48.5802507  53.7010574   4.1378003
  48.8196898  54.9140453   3.2646948  12.9905152   5.9791631  27.3211098
  12.3903990   6.3261926  26.6610622  12.4194276   5.6594670  28.0195999
  73.3810997  87.1038342  90.8120155  74.1038370  87.1896076  91.4337254
  73.8009882  86.8498421  89.9901772  40.3567314  26.0601306  58.0626249
  40.1281261  25.1355100  58.1577444  40.9835815  26.0787034  57.3394728
  16.1035323  62.2561026  12.5441718  15.6584299  62.9202652  13.0704808
  16.3628101  62.7169514  11.7462838  12.5012589  26.4726305  79.4921494
  12.2958577  26.6231465  78.5694408  12.9956388  27.2482777  79.7570896
  50.4923153  33.6252451  35.6667423  50.7301664  34.5130873  35.3995490
  50.6367493  33.6130738  36.6129065  31.5237212  69.4391060  24.2953181
  31.9604921  68.8344288  24.8951745  32.2161937  69.7295952  23.7017417
  79.4669819  99.0068531  87.2309589  79.2587996  99.9263477  87.3965549
  78.9734221  98.7881279  86.4405251  58.7380934  36.4265347  27.0800138
  58.9738703  35.7332706  27.6964760  58.5099459  35.9630704  26.2741709
  36.2226319  14.2477441   3.1328449  36.6010427  15.0395036   3.5151452
  36.1322141  13.6450148   3.8709328  11.7029989  10.3706825  91.3212109
  11.6847110   9.7570360  90.5868149  10.7833385  10.4849958  91.5607643
  68.2297325  70.2033949  25.5122042  68.4671307  70.9936905  25.9972906
  68.1450510  70.4957724  24.6046925  75.0199509   3.6770040  76.2867928
  74.2400742   4.2319992  76.2844467  74.7826195   2.9281068  75.7399321
  36.9701028  89.5991898  14.2834067  37.2327042  89.8749542  15.1616013
  37.6732540  89.0173721  13.9947820  96.6082859 102.6358986  73.8952780
  97.4035931 103.1418991  74.0616465  95.9276867 103.0888462  74.3931198
  47.9862165  10.9070385  79.4539309  48.4163380  10.0721276  79.2691374
  48.0198669  10.9879959  80.4071140  37.0815587  34.2901921   2.1620052
  37.7819753  34.3558121   1.5128975  36.8676519  35.1982689   2.3761863
  45.6489897  26.1284757  28.7266707  44.7517729  25.7999039  28.6694431
  46.0013580  26.0178328  27.8435946  97.2797349  99.7019179  91.3935527
  97.3508695 100.5349381  91.8596485  98.0369428  99.1965516  91.6893199
  44.0120554  61.1532497  31.9736552  44.7742891  60.5974722  31.8113565
  44.2764521  62.0191288  31.6628766  35.0414109  57.4391794  21.5782094
  34.2428446  57.8855801  21.8597221  35.5285764  58.1040239  21.0915041
  87.5106812   4.7841939  87.9273319  87.1460247   4.6727961  88.8053036
  87.5017643   5.7303387  87.7825451  52.5956154  18.0961525   5.8355701
  52.8821039  17.3429358   5.3190219  51.8056202  18.4044898   5.3916490
  26.9606390  -0.1764708  84.6925163  27.6899137   0.3221959  85.0609207
  26.9579877   0.0540132  83.7634850  60.9092188  75.8669281  85.0600910
  61.5492058  75.3055668  85.4977322  61.1795616  75.8676863  84.1418648
  44.8033857  51.8520927  26.7381763  43.8983822  52.0935535  26.9354033
  45.0395393  52.3994446  25.9892654  71.1464357  47.4620247  84.2867184
  71.6560364  46.9354725  83.6708641  71.7293835  48.1828594  84.5250511
  25.5098462  27.8686070  76.8375111  25.2321696  27.2814012  76.1344337
  25.8660102  27.2867203  77.5089169 103.2599258  42.2637224  20.5508065
 102.3776817  42.0229244  20.2681422 103.3577251  43.1763458  20.2791834
  36.3803029  63.7382936  29.4990611  37.2476625  63.4985876  29.1727829
  35.7769442  63.4347534  28.8207865  18.3973098  19.5688701  76.0228348
  19.1407812  20.1151967  75.7678652  18.7455869  18.9928961  76.7034149
  39.2559505  55.0695038   5.7514948  39.8277926  55.8344173   5.8158112
  38.5479474  55.3479195   5.1705945  54.0287590  89.7646427   3.6208713
  53.9529943  89.9985600   4.5459539  53.7501431  90.5509186   3.1514156
  15.9981477   8.4578329  85.8944321  16.8023944   8.9247811  85.6677628
  15.4353416   9.1260540  86.2855434  73.5941935  56.5149069  13.3955216
  73.7859488  57.2839499  13.9322054  74.4532919  56.1937523  13.1215858
  34.7521448  58.9442015  10.1838636  34.2473769  58.1475067  10.0203967
  34.1745520  59.4880199  10.7194781  58.1937790  44.9957323  29.1252279
  58.3260012  45.3187180  30.0165367  57.2925091  44.6733999  29.1185188
  11.1397254  91.9627476   5.3481859  10.6413329  92.6979065   5.7050920
  12.0366240  92.1142197   5.6462801  70.2547693  99.8087120  82.5406742
  70.3505039  98.9569283  82.9667377  70.4723692 100.4436779  83.2230949
  24.9266648  26.8976879  50.3882170  25.6142616  27.2020602  49.7959328
  24.1229343  26.9546413  49.8714972  10.5139589  25.4854774  83.6383343
   9.7072840  25.0152516  83.4276390  10.4274106  26.3243747  83.1855679
 109.1626549  49.1115284  80.9805870 110.0542164  49.0216970  81.3171577
 108.7317467  48.2916164  81.2220383  41.7510891  76.9861412  30.3432608
  41.2785530  77.7870464  30.1163507  42.5029564  77.2879124  30.8530283
 111.1085040  16.0241115  52.2202587 111.2333534  15.8986294  51.2795687
 110.1980782  15.7732856  52.3765993   2.9515252  72.6187992  31.0040569
   3.3299175  71.8336010  31.3996696   3.3855164  73.3452940  31.4513707
  37.6514935  84.6536636  42.5567245  37.6359129  85.3268719  41.8764448
  38.5547543  84.6541309  42.8735018  92.9164505   6.5386677  51.1444855
  92.1077728   6.0270923  51.1207914  92.6467037   7.3982465  51.4678907
  95.1393223  12.3876524  50.5166864  94.2357254  12.4647987  50.2104282
  95.6703472  12.5143957  49.7304440  49.5679140  18.6446035   5.1228929
  49.5837545  18.9338541   6.0352063  48.7995672  19.0754032   4.7483516
  29.3287992  58.8282919  50.4179382  29.6081138  58.3111143  51.1734152
  30.1095629  58.8892698  49.8675537  61.1419296  44.8872662   3.5487822
  61.2410498  45.3180790   2.6997778  60.2628994  44.5091867   3.5243422
  36.1415219  10.3022742  73.6124611  35.6802225  10.5455232  72.8098011
  35.4471469  10.1778710  74.2594528  29.7294569  32.0827293  68.5179853
  29.3500781  32.4088144  67.7019119  29.0303612  31.5647149  68.9169312
  82.0515537  87.5369263   7.6422912  82.8342628  87.7090359   8.1657177
  82.2027874  88.0084133   6.8231100  67.7527618  71.1377430  22.9827881
  68.5556746  70.7836199  22.6004791  67.1209717  71.1289167  22.2637653
  16.0761285  46.0070753   8.5203981  15.1918900  46.1747456   8.1944501
  16.4553666  46.8773985   8.6426634  99.2990017  44.6802378  79.9554491
 100.0449467  44.0961027  79.8191071  98.7050724  44.1830111  80.5177975
  40.7798100  75.9497929  25.6508303  40.7949686  76.8353033  26.0139775
  41.3038301  75.4314661  26.2615442  94.5253277  51.4258671  46.4901400
  95.3193951  50.8917952  46.5115404  94.5774555  51.8993568  45.6598854
  19.7127521  98.0453587  83.6386871  20.6485438  97.8600216  83.7172508
  19.2889154  97.1967602  83.7669849  63.4674215  52.7429104   5.9397441
  63.8985538  53.5970879   5.9669346  63.8009930  52.2816515   6.7092913
 105.4400349  15.1497662  88.2763386 104.4904137  15.1089239  88.1632614
 105.6021404  14.6992838  89.1052055  33.2331371   6.2539780  77.3631048
  33.6116767   5.7759148  76.6252708  32.4796677   5.7268113  77.6288271
  42.7536440  50.7489443  21.5423036  42.2411013  50.4604912  22.2975016
  43.0388641  49.9374533  21.1223459  11.8579328  42.0268202  22.7844787
  11.7111671  42.8512716  22.3208284  11.8549550  41.3613081  22.0964956
  41.3049793  70.9622049  17.5214589  42.0938444  70.9822702  16.9796801
  41.5541553  71.4198494  18.3243918 104.1624355  79.4784737  27.3669457
 104.3006992  78.9981413  28.1832767 103.4770966  78.9877081  26.9134092
   8.0469024  15.5208409  92.1373558   7.6195967  16.3311100  91.8596745
   8.5182059  15.2201736  91.3603687   0.2051718  15.7081270  75.8694983
   0.6186373  15.9755385  76.6903257  -0.6974619  15.5016673  76.1121273
   4.6147466  20.9663439  90.9072590   3.8389662  21.5126109  90.7808208
   4.9479184  20.8150792  90.0227547  27.6724839  73.6462164   4.2618683
  28.2871056  72.9644251   4.5332304  28.1504512  74.1516685   3.6043751
 108.3588696  29.2904973  75.4439926 108.6722851  30.1802945  75.6060696
 108.9821053  28.9280057  74.8143768  74.4982338  88.1419754  43.5113525
  73.5660744  88.2921314  43.6687136  74.8977518  88.1848526  44.3801355
  58.6784267  40.1519585  14.5681167  59.2920113  39.5903873  15.0418079
  59.2004442  40.9108114  14.3075860  44.5257902  33.7703347  81.3480568
  45.0020170  32.9843926  81.0802269  45.2104712  34.4071722  81.5526962
  77.4893951  77.9559040  14.4602776  77.7107239  77.4696827  13.6660266
  76.5630817  77.7649975  14.6076691  31.1471248  22.0931864  70.1554823
  30.4569149  22.5195551  69.6474886  31.9264841  22.6250029  69.9942398
  23.8203001  47.2183037  40.4762745  23.6698508  48.1631231  40.5064869
  24.1852689  47.0616198  39.6053672  27.5567031  70.3754425  10.6820333
  26.6192675  70.2137470  10.5757177  27.7634358  70.0250673  11.5484798
  14.8303688  20.1394153  87.5056267  14.8994613  19.2505205  87.8539371
  15.5766225  20.6038475  87.8846169 107.1787739  21.2381625  69.8767948
 108.1174278  21.0510969  69.8643494 106.7942142  20.5024195  70.3532743
  85.8900070 100.2178574  90.8781528  86.3324642  99.7457504  91.5835476
  84.9691677 100.2304363  91.1391544  19.1540420  14.5996690  70.8441257
  19.8988497  14.3573987  71.3943958  19.3909442  15.4538560  70.4829168
  37.2020841  99.2915344  19.2838514  37.6863098  98.4721279  19.3854642
  36.4584160  99.2058277  19.8803794  18.0051959  59.8874378  35.7523847
  17.7557290  59.8511267  36.6757917  18.4622490  60.7234335  35.6604576
  59.0661478  76.1848688  27.0316839  58.6518478  76.3322401  26.1814666
  58.4175539  76.4835167  27.6691508  20.1927280  15.3698564  85.5354977
  19.6624410  14.6030796  85.7524776  20.2490616  15.3595090  84.5800114
  74.8852205  77.3009968  29.2609048  74.8271942  77.4546623  30.2039075
  75.3081560  76.4458275  29.1831660  98.8891602  46.4900875  83.8831615
  98.4006882  47.2174978  84.2685318  98.7280464  45.7539988  84.4734573
  15.1361465   5.3423750  80.4346180  15.2179658   5.7745820  79.5844841
  14.2539537   4.9709588  80.4305649  80.8620262  68.6148787   6.4009470
  80.4157066  68.7822533   5.5708790  80.4383755  67.8291798   6.7465156
   9.7569466  56.7696571  86.0275650   9.2078817  56.0146332  85.8161449
  10.1048005  56.5765619  86.8981647  70.1316357  87.8070354   8.2845473
  70.6479931  87.8243351   7.4787515  70.7319927  87.4638844   8.9464039
  38.1821108  53.5910940  45.2242041  38.1357646  52.6592827  45.0101662
  39.0347433  53.6978531  45.6459284  62.5314522  33.7972116   8.7197912
  62.0056963  33.0056143   8.8346094  62.7386284  34.0784907   9.6109658
  49.5756340  56.5695143  12.7997160  49.5608139  57.4776602  13.1018579
  49.8373652  56.0650778  13.5699546  42.6998138  67.0922804  45.0884390
  42.6136208  67.9945660  44.7807312  42.1432781  66.5838480  44.4985247
  64.7646809  65.7045078  25.8966970  64.2474985  66.3798475  26.3356352
  65.0221825  65.1063013  26.5981793  21.3656735  20.8273911  86.7391968
  22.1928644  21.2475967  86.9745922  20.7725978  21.5547490  86.5509415
  43.8602638  69.7862053  45.6824780  43.3720970  70.5845833  45.4811859
  44.7396183  69.9509144  45.3421402  72.6615953  85.0325775  27.3453450
  71.9428492  85.6637192  27.3813796  72.3718882  84.3077850  27.8993964
  42.0326614  70.6789160  36.1146092  42.4049759  71.4692736  35.7235217
  42.5557327  69.9634886  35.7529593  40.1132536   8.4815246  84.5472145
  40.2804565   9.3271351  84.1310215  40.9813023   8.0941492  84.6597385
  65.3388500  51.8077993  16.1179864  64.9845982  52.1922302  15.3161478
  65.3310347  52.5253963  16.7514062   1.8478839  48.9193344  74.3574333
   1.8462679  49.8631716  74.5167971   1.9580068  48.8365507  73.4102011
  71.5400887  42.6804829   2.6024532  70.6851244  42.8368902   3.0034512
  72.1389675  43.2499075   3.0854949  85.4520130  88.9080048  50.8111620
  84.9773693  88.9085388  49.9799299  85.3015232  88.0344200  51.1723375
  80.3062344  34.7762299  13.2031488  81.2003040  34.6570563  13.5235703
  80.3136253  34.3949223  12.3252070  50.3392172  19.9633789  69.9196863
  50.6051064  19.1573977  69.4770479  49.4141531  19.8293877  70.1259327
 112.2245407  96.7594051  68.6304188 112.1634197  97.6955223  68.8206387
 111.8659592  96.3329315  69.4087315  33.1710720  38.5986257  44.7763491
  33.3018589  39.3006921  44.1389894  32.8947163  37.8472424  44.2516756
   2.2753766  71.5320015  19.4265068   2.2396900  71.8954086  18.5416949
   1.7288162  72.1191216  19.9487996  36.2389851  26.5669632  88.8491631
  37.0054293  26.0790682  88.5479069  36.0111427  27.1338892  88.1123257
  60.4395294  86.4133644   4.6496233  61.3523436  86.5556049   4.9001601
  60.2855396  87.0380783   3.9409259  87.5302792  23.9506578  67.4461746
  87.0103741  23.5373712  68.1354713  87.7947712  23.2264781  66.8788671
  10.6080663  33.8620400  83.9437389  10.0477743  34.2379093  83.2647419
  10.1288033  34.0103030  84.7589397  44.7665310  84.3376923   5.9094650
  45.0306368  83.6530399   5.2948666  43.8097239  84.3254089   5.8850139
  21.1773109  33.9844203  57.2053862  21.9258046  34.5796514  57.1643209
  20.4423881  34.5411539  57.4626207  88.1677532  14.8430896  82.6675129
  88.9565945  14.5877922  82.1891880  88.2946968  15.7720327  82.8603458
  52.7495623  79.9758053   2.5699553  52.8330469  79.4677258   3.3768737
  52.8100491  80.8879185   2.8538954  12.3578978 100.7471275  79.7384691
  12.2380114 101.6286659  79.3852711  12.8147972 100.2713013  79.0448809
  22.6725817  63.2600832  20.4009843  21.9610476  63.4032965  19.7769308
  22.3256564  62.6133585  21.0154963  38.0025458  52.7727509   7.2485960
  38.3947539  53.6054468   6.9858879  38.5584641  52.4608707   7.9626787
   1.5245192  18.9852917  70.9139633   1.7891583  18.0680048  70.9831238
   1.5569124  19.1738582  69.9760771   5.3279716  80.5969810   4.9156278
   5.1884663  79.6779823   4.6871108   4.8536235  81.0857010   4.2430383
  39.8078322  43.9055395  24.2730045  39.5723462  44.5458269  23.6015797
  40.2648783  43.2138538  23.7945580  33.1228709  37.4239779  86.0038662
  32.9987526  37.4732137  85.0560284  34.0662479  37.3070812  86.1161423
  92.1820259  52.7931118  89.5859623  92.7088737  53.3606005  90.1486492
  91.6963863  52.2364330  90.1946449  31.5234447  40.0971794  22.2792315
  32.3846698  40.0154543  21.8695426  31.4211488  39.2907596  22.7846575
  46.8551588  80.4701710  26.0679317  46.2547684  79.9150085  26.5654874
  47.7193356  80.0900078  26.2257743   2.3902899  36.1741185  74.8687315
   2.6846734  36.0869861  75.7753611   1.6943733  35.5230212  74.7792530
  33.5288048  11.4088094  88.1850719  34.3338609  10.9364271  88.3971405
  33.1288338  11.5939426  89.0347672  46.1509800  82.3434830  34.9304748
  46.5531874  81.6134357  35.4011083  45.2205992  82.1214581  34.8940563
  61.6559076  81.7285442   5.4961032  61.9915009  81.2070179   4.7669807
  61.7495203  82.6355457   5.2048635  24.9246955  61.8484783  26.7765760
  25.5604649  61.1442757  26.9035602  24.0762424  61.4055729  26.7628717
  77.1191549  68.0802536  12.8431916  78.0076933  67.7261209  12.8795278
  77.2283697  68.9662170  12.4976897  88.4301472   5.3799939  10.1051450
  88.3572674   6.2648726  10.4627907  89.2302513   5.3990304   9.5800591
  32.3998737   8.5269988  76.3501787  31.4670753   8.3131164  76.3694763
  32.8327346   7.7411914  76.6838980  34.5845389 102.4165535  39.9204993
  34.0138316 103.1840611  39.9587154  35.4405451 102.7404022  40.2008772
   1.8588683  17.9090261  90.5767155   2.0929737  18.8224351  90.7413673
   2.3049429  17.4191666  91.2675762  86.8005657  80.1550961  15.4751873
  86.3152122  80.7546616  16.0419273  86.3596153  80.2167320  14.6278405
  13.0051684  16.5989935  75.1946831  12.8817105  17.5199020  74.9646473
  13.9466131  16.4530635  75.1018476  45.6862116  81.9738007  12.2148550
  45.7749176  81.0615444  11.9389248  46.3006067  82.0645523  12.9432213
  87.1838379  83.1031036  87.7967262  87.4098301  82.2343159  88.1289482
  88.0157471  83.4680557  87.4951077  23.7797546   8.4835416  73.1017685
  24.1179109   9.2115742  73.6231613  23.0184364   8.8464516  72.6490831
  29.2928743  62.2589493  10.9739041  30.1644206  62.4177933  10.6114006
  29.1428328  61.3237238  10.8358037  31.8053126  53.1874466   2.2340123
  31.3882041  53.6727715   1.5221757  32.7134633  53.4898996   2.2301510
  40.9786558  57.1678114   5.5975181  41.8789387  56.9325352   5.3730953
  40.7618523  57.8830719   4.9994999  27.7300715  93.7181950  50.0397587
  27.5034308  92.8719521  50.4254341  26.9313192  93.9997578  49.5937252
  47.6735449  53.0814600  21.6401196  47.1858692  53.8315630  21.9803476
  48.4504890  53.4653234  21.2336230  95.6645775  29.7899055  87.2327995
  95.3539753  29.6550441  88.1280994  95.3651619  30.6701899  87.0054531
  50.5447817 100.4092693  43.8735533  50.6736135 100.7428360  44.7614527
  49.8617983  99.7447586  43.9640903  97.3955917  67.6369286   1.6131151
  97.6968575  67.4388361   0.7264175  97.3059940  68.5898018   1.6283523
  48.3604240  65.9407759  29.5532846  47.9529953  65.1216841  29.2716455
  47.6601410  66.5903711  29.4911575  23.2014132  61.4550018  14.1211653
  23.7714505  61.0668755  14.7849774  22.3212910  61.3856649  14.4910407
   0.0898197   1.7665423  78.2265091   0.8825619   1.7238505  77.6917458
   0.1940947   2.5636044  78.7461710  -0.2475070  37.6598310  66.4367771
   0.4285816  37.9127622  65.8081579   0.2370322  37.2806787  67.1700573
  64.0482855  17.7383924  68.5976315  63.5973597  17.8766167  69.4305706
  63.3739138  17.8814554  67.9335642 111.0342693  32.1587396  90.1029682
 110.4885292  31.3756061  90.0315475 111.2402821  32.2228789  91.0355377
 102.5927830  31.1616659  78.1650734 102.7955341  31.4170194  77.2651196
 103.3517361  31.4494038  78.6724472  10.9737098  26.9750595  71.7222548
  10.4624224  26.8582058  70.9215307  11.6438055  27.6168346  71.4870405
  47.4280739  68.4696054  24.0212321  47.7747583  68.2856655  23.1481886
  47.7368832  67.7411413  24.5599413  39.7444963  26.8503785  82.4552441
  39.0654707  27.4829721  82.2207642  39.3420935  26.3072348  83.1329536
  18.2531857   9.2048907  68.5713863  18.0193663   8.6531073  69.3177748
  18.3507121  10.0816333  68.9429283  53.3035183  63.0923843  11.0591018
  52.6519585  62.9307222  11.7414260  54.0138292  63.5492468  11.5096271
  81.6505241  95.3455162  31.8710542  80.8585930  95.3427887  32.4087095
  81.5612125  94.5757198  31.3092017  77.4944973   0.2972252  21.0323000
  77.9215384   0.0008164  21.8360472  76.6153669   0.5553191  21.3093376
  74.6670246 105.6296062  68.6612225  75.3743935 104.9847412  68.6652565
  74.3154144 105.5938625  67.7716589  37.8493476  64.8438835  21.5011573
  38.7771773  64.6233463  21.5831709  37.5070763  64.7749090  22.3924065
  30.6188035  65.5664253   7.5193733  30.9469771  66.4425421   7.3169917
  29.6712351  65.6775713   7.5967890  26.4682341  78.3689547  22.1308184
  25.7584143  77.7272463  22.1063948  27.2094464  77.9218912  21.7221975
  20.7410039   0.7371110  90.2385044  21.3171377   0.6294603  89.4817162
  19.8567667   0.6809396  89.8762798   0.6744844  23.1015420  65.0405359
   0.1870233  22.3154044  64.7943497   0.0270540  23.6597610  65.4711819
  50.5399704  73.7994432   4.1233173  51.4082193  74.1530418   4.3165639
  49.9771738  74.5706415   4.0544468  22.7483940  51.1313057  19.8847306
  23.2922697  50.9923220  20.6600451  23.2644868  50.7727337  19.1627169
  91.2237358  19.0793407  82.6123524  92.0892334  19.3501604  82.9186058
  91.0567570  19.6308053  81.8479919  80.5931950 103.0257988  72.0819521
  80.8406639 103.6991882  71.4482880  81.2817001 103.0573463  72.7461720
  21.0580754   7.7272695  84.0009785  21.6986275   7.5224435  83.3198166
  20.3469038   7.1031010  83.8564587  97.6610851  10.0213766  86.0126305
  97.5216389  10.6665087  85.3193855  97.7009869  10.5388761  86.8168926
  58.4806538  44.0340900  20.4375267  58.8923788  43.9437056  21.2969160
  58.0868196  44.9064112  20.4511809  10.1427388  41.4689064  73.2623243
   9.8528284  40.9377050  72.5207043   9.6173459  42.2669888  73.2051992
  49.4611502  57.6465034   2.5398728  49.9569941  57.6493740   3.3586287
  49.7038221  56.8234015   2.1157864  18.4905481  32.8230572  75.2196503
  18.6426806  33.1855655  74.3469095  18.7394702  31.9019628  75.1431417
  66.9314220 101.6188081  91.0190039  66.9517734 102.2656663  91.7242643
  66.2022236 101.0412581  91.2446977  16.9693494  42.0973349  54.1350317
  16.5014803  41.9978714  53.3059120  16.8065500  43.0041599  54.3946266
  55.5457687  64.4335222  12.3197663  54.9758673  65.1728296  12.5315976
  55.7640743  64.0485191  13.1684971  86.5865707  74.2739344   4.1940039
  86.6934776  75.2030516   4.3978119  85.7997036  74.0127850   4.6724129
  40.9097528  24.6149278  90.9160137  40.6285238  23.9699531  91.5649700
  41.8364429  24.4224691  90.7730484  37.0418167  48.4666920   0.6341464
  36.2897801  48.9363337   0.9948517  36.8943501  47.5534678   0.8801316
  30.7485390  74.5870066  91.8777084  31.0301352  74.3931580  90.9836388
  31.1028266  73.8684416  92.4015236  42.6713848  43.2393169  88.0272961
  42.0157242  43.4465361  87.3614120  43.5106277  43.3820915  87.5896645
  20.2321053  58.1114817   4.5795736  20.6709552  58.4264803   3.7893724
  20.3114510  57.1586704   4.5339471  40.5394650  77.8025770  13.4360182
  40.4670048  77.2107220  14.1848099  39.6832967  78.2272673  13.3826756
  71.4879322  85.0929356  23.0458927  70.9422016  85.3162861  23.7998986
  72.3821115  85.2744675  23.3352423  68.1205511  67.5283909  23.7823558
  68.2675791  67.1596050  22.9113722  68.8253927  68.1662416  23.8944817
  31.5572429  82.2694874  14.5868778  31.3708067  82.7803612  15.3745854
  32.4656200  82.4822521  14.3728352  93.7624168  16.6568458  76.5610838
  94.3964195  16.7909837  77.2655535  92.9813290  17.1295762  76.8485880
 103.6359692  13.4675443  63.8766003 103.1260777  12.9327059  63.2681751
 103.0076885  14.1012394  64.2228985  78.4612656 101.4420891  79.5330620
  79.0019131 101.0709381  78.8357973  78.8623428 101.1243057  80.3420067
  40.5206537  66.7559385  10.4397118  41.2915945  66.2842751  10.1244140
  40.1781225  67.2004890   9.6642882  47.6909447  65.5004549  18.6024380
  48.2589102  65.2473736  17.8747022  46.9744921  64.8661280  18.5789108
  22.0448852  25.8716059  85.3744221  21.9807267  24.9871325  85.0141144
  22.0541263  25.7437205  86.3230038  70.3463316  38.4506822  14.8838329
  69.4670153  38.1226707  15.0720906  70.2101421  39.3578863  14.6105838
 103.7246323  95.4594231  76.9832087 103.5777855  95.8220482  77.8568077
 104.2777538  94.6925354  77.1320820  45.1302433  64.2961216  19.5731044
  45.2623463  63.5739613  20.1873231  44.4410467  63.9873123  18.9849961
 104.0943623  15.7201159  56.7726946 103.1607437  15.9224391  56.8330717
 104.5322323  16.5242136  57.0518541  79.9863195  35.0956941  78.5805225
  80.3057671  35.2832770  79.4631290  80.3150177  35.8199072  78.0478811
  15.7465565  31.1445737  64.6883392  15.1010656  31.7770171  64.3727589
  15.6743920  31.1842752  65.6419897  33.3025050  67.1440601  24.2434049
  32.5846601  66.5127373  24.1947722  33.8688540  66.9201231  23.5049391
  15.1571071  17.5096250  53.5311890  14.4571733  18.1443822  53.6841822
  15.7425106  17.9435587  52.9105139  77.3635435 102.5828362  66.0786486
  77.8391218 103.2584286  65.5952978  76.7804909 102.1894264  65.4294062
  52.8636646  83.5797024  15.7748699  52.6646328  83.1935787  16.6278219
  52.7045107  84.5161724  15.8928812  34.3724275  47.4016953  13.2890224
  33.8571858  47.7380133  12.5557768  33.7861609  47.4656200  14.0429699
  25.5234337  92.4997902  67.4419260  25.7716894  91.5876865  67.5924540
  25.3774500  92.8560352  68.3182859  38.8882709  58.7244654   4.3823090
  38.5474825  58.3144712   5.1772928  38.5389495  59.6153927   4.4036528
  10.1119983  15.3047597  74.6932936  10.4599130  14.5653665  74.1948128
  10.8862007  15.7322240  75.0595093  65.1390123  97.5949955   1.2740760
  65.8718157  97.0855713   1.6200797  64.4092607  96.9762039   1.2459811
  37.7745819  20.8516955  66.6242790  37.2863030  20.8558583  67.4475622
  38.0541658  21.7596173  66.5070343   9.1886282  87.7607346  66.5826845
   9.9317449  88.0345440  67.1203089   8.8617086  86.9696140  67.0110369
  83.3598042  39.0277386   3.6099750  83.2915592  39.5013213   4.4390067
  84.1271114  38.4657097   3.7176543  51.7281151  18.1331551  73.7429190
  51.2246656  18.9440060  73.8156891  52.5660086  18.4043062  73.3679008
  20.2616303  19.6148874  91.7424283  20.9607785  18.9676048  91.8343261
  19.8291867  19.3852140  90.9199473  27.7213049  56.0898447  11.0048628
  27.4504995  56.1190701  11.9224918  26.9008517  56.1102724  10.5122447
  92.2329330  96.6834259  88.6757469  91.6821671  97.2565556  88.1424427
  92.6438904  96.0917950  88.0454063  24.4806767  55.5148649  22.4412394
  24.0340710  55.9284544  23.1799674  25.0020051  54.8164654  22.8370762
  83.0307961  75.4392242  30.9912539  82.2857285  75.9782267  30.7255864
  83.3870888  75.8851337  31.7596650  25.1608753  15.6085026  87.6857471
  24.2787123  15.2411520  87.7411747  25.7170963  14.9625742  88.1212044
  35.2483964  79.5715809   6.6074967  34.7230029  79.4060135   7.3902994
  36.1534762  79.4606209   6.8986189  44.3820858  86.4715672  29.1451597
  45.2617025  86.4909649  29.5221567  44.3931866  87.1558380  28.4759164
  59.4064093 104.0642452  11.6480780  58.8289785 104.7698593  11.9394767
  58.9673710 103.6968613  10.8809376  46.2114143  61.2831688   1.9737062
  47.1041107  60.9969568   2.1671107  45.7705307  61.2831879   2.8233257
 105.6290722   9.8800939  80.8901119 105.9924603  10.6690979  80.4880524
 105.4489613  10.1337624  81.7953491  16.2998772  14.4692433  87.7662182
  15.3841722  14.7263110  87.6583672  16.7975354  15.1821017  87.3657131
  74.7749376  86.1956692  12.1297371  74.4296646  87.0178509  12.4776316
  75.6009102  86.4402771  11.7124009  79.2759132  85.0164890  17.9435968
  78.5011101  84.4891548  17.7491152  80.0122166  84.4725895  17.6638246
  68.7566948  80.7935524   7.5995350  67.8567410  80.8982563   7.2907382
  68.9617634  81.6254234   8.0263525  17.0000184  14.1992986  90.6291199
  16.9782639  13.3545935  91.0788250  16.4354956  14.0787494  89.8655701
  86.9100189  79.6647453  80.6666946  86.4521790  79.7576761  81.5021420
  86.7264557  78.7664938  80.3915977  20.4824257   9.8970723  75.5575180
  20.3679729  10.7629967  75.9490633  20.4246759   9.2907780  76.2959671
  15.9707904  16.6263115  77.1379328  15.2827764  17.2839320  77.2399330
  16.7209935  16.9895756  77.6085377   9.8181796  66.2712049  25.1680923
  10.5102456  66.5917921  25.7464528   9.0933907  66.8823099  25.3002405
  54.2147112  95.8701706   8.2004452  54.9607658  96.4695358   8.1804818
  53.6563206  96.2060738   8.9015931  53.9477301  96.0959435  90.0481796
  53.7400818  97.0204258  89.9123478  53.1924629  95.7479572  90.5222130
   5.6155843  19.4361639  63.4809732   6.5637219  19.3126154  63.5257244
   5.3887641  19.2232251  62.5757408  60.9533834  65.5307770  27.0763206
  61.2033463  64.7065210  27.4938846  60.8986187  65.3201008  26.1441994
  27.0576358  63.7074995   4.2268628  27.0620251  64.2490244   5.0161451
  26.1339784  63.5018921   4.0826005  55.7434320  40.0240278  18.7567627
  56.0883904  39.7164369  17.9185379  55.4320240  39.2310214  19.1931117
  74.8309851  50.9575701   7.2753918  75.5534935  51.3343477   6.7731440
  74.6817207  51.5818596   7.9854703  79.6021843  89.5230389  85.7837772
  80.3100109  89.6058846  86.4227962  79.2080164  88.6713219  85.9720421
  69.6862745  98.7018108  11.2639117  69.6007776  97.7696896  11.0637486
  70.6138039  98.8926697  11.1243069  54.3247366  64.8419619   2.7812007
  54.2790556  65.7883883   2.6454782  53.4665489  64.5189238   2.5066108
  49.0412283  83.5242462  17.4859381  48.4282446  84.2506123  17.5994051
  49.8946047  83.8932228  17.7136016  44.3336964  21.8252063  86.4377499
  44.2348003  20.8887744  86.2658596  44.6438313  21.8712711  87.3421478
  44.9342203  68.0362225   8.6768508  45.6405783  67.4206829   8.8728106
  45.1991177  68.4513474   7.8560376   4.5114675  44.1490078  79.5416212
   5.3285366  44.4139671  79.9640274   3.8336965  44.3403244  80.1898956
  57.9632378  77.4952269  17.5138199  57.3604155  77.7158356  16.8037713
  58.7928391  77.3085022  17.0743644  33.5179567   3.9741340  47.2042465
  33.4673381   4.0677765  46.2529850  33.1937861   3.0899230  47.3754644
  51.1905336  26.5649700  85.8060074  51.8915939  26.9693112  85.2948761
  51.4105272  25.6334877  85.8194160  92.4617004  84.1955853  48.1106043
  91.8947983  84.9663830  48.1376171  93.3423615  84.5501518  47.9883385
  50.3617382  86.9215965   4.7722363  50.4397821  87.7204418   5.2937680
  51.2216663  86.8163395   4.3651950  99.4109154   6.3005090  21.6463208
  99.9024010   7.1167219  21.5543103  99.2903328   6.1986637  22.5904179
  25.7697248   3.3498082  62.5352716  25.1371408   2.6888764  62.2537804
  26.5958047   3.0756915  62.1369267  22.1732926  77.8217554   8.2854640
  22.6303840  77.1624994   7.7632731  21.3272166  77.4225187   8.4879339
  61.4777231  79.4001532  15.3624475  62.0097685  78.6046314  15.3449631
  62.0377827  80.0537014  15.7812941  70.4193735  86.6987610  11.5933478
  70.8555555  87.3444366  12.1493006  71.0932159  86.4238453  10.9715819
   8.6898649  35.3674102  69.7607517   9.2968839  35.1424956  69.0556479
   7.8912985  34.8821878  69.5531940  54.5868540  85.2384186  27.5545859
  54.3545485  86.0116863  28.0687141  54.9019289  85.5901718  26.7219830
   5.5098253   0.9044404  41.1550570   4.6380568   1.2942939  41.2203693
   5.5479264   0.2801725  41.8796730  59.3554926  92.2684383   9.4171846
  58.6114645  92.8054333   9.1446233  58.9657164  91.5647888   9.9360132
  44.6183300  99.4631577  10.4940236  45.4407501  99.7700596  10.8756840
  43.9384937  99.9015713  11.0057306  88.2717323  67.0504665   9.7655034
  88.5740280  67.7526808   9.1895336  88.1247711  67.4789000  10.6087577
 109.0130329   3.0287439  13.7633038 108.2247543   3.5565457  13.8909173
 109.7349453   3.6508197  13.8532221  93.2829094  11.5812314  19.9496257
  93.0417156  10.9841752  19.2413998  94.0460300  11.1724830  20.3580403
  85.8932972 104.9384689   0.7489786  86.5902138 104.8973370   0.0941136
  85.3439522 104.1771507   0.5622662  75.8978081  69.0087271   1.6790733
  75.7204485  69.8706818   2.0556459  76.3837099  68.5448360   2.3609358
  41.4178038 100.0537968  24.8878431  41.9311666 100.4438114  25.5953550
  42.0175314  99.4364834  24.4689417   4.6147102  62.7661085  83.9427662
   5.3130645  62.6795197  84.5916367   4.1139725  61.9539928  84.0199947
  25.0088072  24.9046803  88.3205414  24.4415498  24.3112326  88.8127518
  24.4310880  25.6178808  88.0488586  38.7878489  87.6235104  13.9692652
  38.9131141  86.7101574  14.2267954  39.1950798  88.1287766  14.6729052
  94.3657398   3.8129738  22.0707989  93.9201260   3.9484060  21.2345481
  93.6597347   3.7843448  22.7165270 108.0624104   9.3794668   9.8904246
 107.1531391   9.4812328   9.6091735 108.2313156   8.4399545   9.8195684
  87.7781868  61.4974594  27.3128104  87.1999550  60.7370043  27.2528100
  87.5742435  62.0154428  26.5341377  55.9948778  76.5637159  27.2304392
  56.0211086  77.3743057  26.7220187  56.3594913  76.8034458  28.0823898
  18.9592338  23.3891726  88.8083839  19.1097736  23.9664149  88.0598164
  18.2894897  23.8369608  89.3252659  86.5722656  86.5168953  48.5775137
  86.0465813  87.1574116  48.0983210  86.3016605  86.6194725  49.4899178
  67.4439669  83.3319473  17.2167635  67.7205944  83.6566257  16.3598549
  68.2610226  83.1161690  17.6663125  42.2931242  29.6338129  88.2509041
  41.4640331  29.8541284  88.6755180  42.9351139  30.2102351  88.6654186
   7.2717607  40.9304667  80.4053116   6.4719945  40.4057550  80.3695011
   6.9892085  41.7739344  80.7588100  29.4665122  87.9164219   1.8076706
  29.7398162  87.1215630   2.2656412  29.9020958  88.6263752   2.2793305
  65.7501984  78.0030060  19.0384316  65.5966234  78.1393194  19.9733460
  65.2351618  77.2257710  18.8219321  55.2544737  80.0212097  15.6819105
  55.5093336  80.9046841  15.9478903  55.2518559  80.0504971  14.7251630
  52.8988695  78.6402130  11.5863097  52.1696186  79.2091465  11.3398588
  53.3949757  78.5222483  10.7762504  62.5465965  71.9733238  24.1665888
  63.4329510  72.2376537  24.4130421  62.5591850  71.0174942  24.2162347
  97.2200680   1.0378944  37.1926236  98.0032253   1.4631729  36.8432903
  97.4662304   0.7736486  38.0790806  71.4548588  97.4514008  14.1447115
  70.6019735  97.5098419  13.7141263  71.4844561  96.5622139  14.4978523
  36.2873936  19.7544074  77.0869827  35.6744432  19.4962549  77.7753735
  36.2013936  19.0718758  76.4214087  23.6651278  15.7810640  75.7738972
  24.4166946  15.8651268  75.1871157  22.9996824  16.3550723  75.3945160
  76.5290928  93.0874634  23.5752940  77.1179056  93.6978531  24.0191007
  76.4016867  93.4669590  22.7058196  78.9967918  92.0299625   3.8237971
  79.1639900  91.3793278   3.1419241  79.2441225  91.5922451   4.6383297
 105.9226227  91.5956116  43.0779552 105.6141949  92.2027683  42.4053001
 106.7904091  91.3257885  42.7773380  70.5618668  87.5706291  21.8751693
  70.6298208  86.6888332  22.2413158  71.1447334  87.5602913  21.1159658
  43.6509037  91.1119652   8.3879387  43.5101748  91.9465256   7.9407865
  42.8763342  90.5919266   8.1738412  63.5882807  80.9117985   7.2069490
  63.0442810  81.3378525   6.5445495  63.8563299  81.6221714   7.7898318
  31.6840529  24.2614722  88.9583874  32.3330760  24.5704842  89.5904636
  32.0138049  23.4091282  88.6737823  24.4558167  18.0986941  83.0755520
  24.2422533  19.0317512  83.0704594  24.4098043  17.8374326  82.1558475
  12.0771146  31.7923713  82.9621410  12.2486651  31.3495255  83.7932205
  11.5529132  32.5566030  83.2017136  50.5891132  67.5461054  21.1344099
  51.3926458  67.7195740  20.6440282  50.3353834  66.6609287  20.8730388
  90.2103806   0.8171563  14.1576123  89.5038223   1.1282978  13.5917556
  89.8308182   0.0755115  14.6289146  53.6418962 105.2774906  19.3973184
  54.2939949 105.0813293  20.0700164  54.1413784 105.3084850  18.5813594
  62.7711201  71.5650606  18.8550580  61.9660759  72.0096207  18.5895371
  62.9091835  71.8406248  19.7612786  80.5688381  83.6675358  38.1185246
  79.9956036  84.4229317  37.9881382  81.2917519  83.8070393  37.5068355
  15.2230513  19.5126426  60.4933167  14.3932199  19.1543186  60.8083057
  15.0812745  19.6585906  59.5579958  29.3846989   9.7403651  76.4679193
  30.0687551  10.3574288  76.7277861  28.5654855  10.1871407  76.6812563
  47.3841763  66.6386318  14.3869901  47.9819107  65.8910513  14.3789244
  47.9490280  67.3952436  14.5441914  53.3425283  59.0750313  56.8906498
  53.0686045  58.2790565  56.4349937  54.2911148  58.9846468  56.9814301
  40.5673075  47.4256039  89.4215107  41.3076591  47.7263117  89.9484730
  40.8592892  47.5310469  88.5160542  74.7514105 104.9946690  19.5292735
  74.4573736 104.1426277  19.8514533  73.9661837 105.5417538  19.5478797
  37.7611852  98.2122421  83.0242252  38.6210322  98.0708313  83.4203339
  37.2587061  97.4316502  83.2575417  42.8109312  65.1927662   2.8539595
  43.1566954  65.4592705   2.0021056  42.6650667  66.0153341   3.3212271
  61.0469675 104.2801476  50.8070326  61.7087460 103.7697506  50.3403664
  61.5471268 104.9447632  51.2806940  10.2914882  25.4583311  65.4561996
  11.2079763  25.4366255  65.1808691  10.1347065  26.3719153  65.6949711
  63.4399223  69.5021200   1.9508702  63.9536762  68.6992741   1.8629937
  63.7754917  69.9153423   2.7464011  94.9925709  17.7375722  55.3792143
  94.7154903  17.1729505  56.1007786  94.1780281  18.1053936  55.0365067
  48.1962109  53.5816288   9.7061753  48.1645870  54.3968773   9.2055696
  47.7035332  53.7715626  10.5045676  67.2521162  90.5555725  46.3716555
  66.9395971  89.6755886  46.1614132  67.7275991  90.8342171  45.5890274
  23.0583000  24.1623521  62.8246117  22.1298480  24.1006970  63.0491257
  23.1069779  24.8899889  62.2046041  17.8803098  17.9336631  78.2189894
  17.7069461  18.2548916  79.1038561  18.6333191  17.3512256  78.3188677
  98.8064289  90.3170395  83.4044743  98.8475609  90.1193619  82.4688148
  98.2231426  89.6491718  83.7649632 112.6795864   5.0574797  10.4511273
 112.3046398   5.0588155   9.5704228 112.0834827   5.6012988  10.9660542
  95.9993362  97.9734612  67.8287506  96.8445492  98.2613945  68.1736326
  95.4523373  98.7587070  67.8489685  82.4387741  99.5048809  57.7195454
  83.0506897  99.3424988  57.0016146  82.0740032  98.6435604  57.9227877
  15.4961920   9.4128716  62.0404720  16.0256612   8.8069910  62.5589323
  14.5918655   9.1606748  62.2270823  60.7836819  66.8694830   2.4101846
  60.7979250  66.3867712   3.2366335  60.4694653  67.7418756   2.6477417
  95.0586605  89.8595333  64.2122889  95.1190090  89.2863178  63.4480810
  94.1521740  90.1669788  64.2100906  60.7144070  33.7613964  44.5688343
  61.6376781  33.9463902  44.3968487  60.2829695  34.6132326  44.5020199
  17.2071922   8.4115314  63.9804935  17.4030590   7.9712027  64.8075247
  16.9347501   9.2925888  64.2369032  45.6177521  79.7660875  17.9270732
  46.5493298  79.6461010  17.7426660  45.5599880  79.7599173  18.8825095
   5.6603169  19.7915626  86.1616135   5.2013695  19.0029180  85.8724117
   5.3094077  19.9662435  87.0348740  35.9492874  61.4750671  59.7836065
  35.3874016  61.4710236  59.0086889  36.8400979  61.4612055  59.4336128
 109.7337151  35.5392122  42.3137569 108.9685440  35.1755500  42.7592945
 110.4460621  34.9382687  42.5320625  42.2003937  39.4152093   8.6403674
  41.6442347  39.3026614   7.8694880  42.8158665  38.6831975   8.6006027
   7.3167706  35.5536604  34.4139218   7.5926304  36.2590003  34.9992657
   7.2656459  35.9647346  33.5509992  50.2864361  87.4836922  33.0708218
  50.5019140  88.1991291  32.4725342  49.5827436  87.0070171  32.6305652
  62.9393053  45.9121370  15.9197772  63.0666828  45.7482529  14.9853528
  63.7969637  45.7462978  16.3111246  46.7377234  49.5461750   7.7259922
  47.0304251  48.9945126   8.4514076  46.0360098  49.0442467   7.3113894
  75.1622820  54.9948263  10.7038677  76.0248089  55.4073238  10.7500148
  74.9510813  54.7790432  11.6121984  57.5071287   4.0273252  26.0328865
  57.0917654   3.6106449  26.7879272  57.0775890   3.6315566  25.2745366
  31.9821405   4.3559879  72.6442909  32.3232126   4.1175881  71.7822790
  32.4839234   3.8187814  73.2573605  34.4407272  26.7006254  19.4989109
  34.0905190  26.0283208  18.9144528  35.3461719  26.4330554  19.6564174
   3.1454936  23.0638552  75.4165173   3.9932796  23.2721448  75.8090782
   3.0667725  22.1141434  75.5064249  14.8642480  48.6800098   8.7039071
  14.4608378  47.9645395   8.2123852  15.5562878  49.0056467   8.1283450
  53.4160709   6.6413772  75.5084896  53.9730835   6.8680674  76.2531948
  54.0293264   6.4745986  74.7927141  57.5978088  38.1279302   8.3157331
  57.6411152  37.1973228   8.5355657  57.4592686  38.5661793   9.1553611
  93.1289291  11.3222706  76.7427778  93.9487076  10.9517562  77.0697689
  93.0392170  12.1536493  77.2086048 105.8553886 103.0276966  57.5806808
 105.1830292 103.4987450  57.0884657 106.6031933 103.6250019  57.5965786
   8.9505786  30.2507830   4.1180369   8.1122690  30.5272865   4.4881928
   8.7525201  30.0438476   3.2047006  91.6699696 104.1857719  87.5586414
  90.9679127 103.8091183  88.0891895  92.1007538 103.4297371  87.1598244
  15.3370833  41.9645214  66.9115543  15.1294458  42.2107935  67.8129244
  14.9821484  41.0806084  66.8169451  25.6796734   9.5022728  91.6523512
  25.8887617   8.8615562  92.3320519  25.9630959   9.0879776  90.8373298
  31.4540172  13.1350625  73.1573725  31.6612840  12.2054625  73.2528591
  31.9547367  13.5645688  73.8509417  81.8145657 104.3602180  84.2772293
  82.5800323 104.3678188  83.7025642  82.1486568 104.0450478  85.1170349
  21.8248391 105.4805756  82.3217201  21.7330384 105.8969307  83.1787300
  21.4008641 106.0867786  81.7142773  98.5964966  22.5171566  73.4399319
  99.2677975  22.0416784  72.9505396  98.7909222  22.3288298  74.3580627
   0.3599866  91.1603355  87.7595520   1.3154089  91.2150955  87.7394962
   0.1078788  91.0371685  86.8443966 107.4560833  87.5840092  67.3730564
 108.1141567  87.0546532  67.8235626 107.2491550  88.2854462  67.9906321
  25.6705356  20.8414435  83.9321613  25.0492382  20.1696849  84.2131615
  25.4912925  20.9582376  82.9991722  88.2722378 100.4173470  75.9016466
  88.2666779 101.3067722  75.5479145  87.5424480  99.9804306  75.4626274
  53.8838148  58.1799698   0.2387403  53.3091784  57.9516029   0.9694038
  53.9873362  57.3628855  -0.2489959  10.6102896  13.0061281  81.2657547
  10.5079067  13.7120068  80.6274033  10.1085377  12.2776961  80.8998775
 102.8488445  18.9946759  86.7184448 102.2567272  18.2557118  86.8583012
 103.7183857  18.6450052  86.9130421  66.0012102  37.9402471  31.2508082
  66.5612411  38.5866237  31.6806865  66.4697456  37.1118093  31.3527632
  43.5219717   1.2000964  74.8956585  43.8178873   2.1099186  74.9254894
  42.7432919   1.1831290  75.4520750  93.5285282  87.1223164  86.4214230
  93.8749599  86.2331390  86.3466835  92.5788021  87.0073891  86.4539433
  88.1855965  88.5495377  90.0757980  87.4727631  87.9252148  90.2111053
  88.2623100  88.6230087  89.1245079  78.0848220  82.5539716  91.0770583
  78.9749625  82.2304232  90.9385056  77.5318292  81.9570286  90.5729854
  92.2246647 101.6101551  50.9210920  92.2935867 100.8319092  51.4740896
  92.1433830 102.3366356  51.5390348  33.2362223  14.3230200  79.5874023
  33.0861878  14.1659033  80.5196190  33.9845896  14.9193013  79.5624113
  91.2094498  59.7279501  13.6286831  90.8674812  58.9179468  13.2502890
  92.1386814  59.7259760  13.3990037  63.8990450  45.4404211  23.6029243
  64.7306347  45.8755684  23.7909007  64.1496563  44.5809698  23.2641482
  98.5983372 104.9271679  53.3784056  98.0292416 104.5510292  54.0498829
  98.6112976 104.2718220  52.6808548   8.4683549   1.7180948  64.8955488
   9.2348999   1.4126599  65.3806734   7.7447319   1.6401036  65.5172539
  41.0446453  81.7733383  16.5470672  41.8451548  81.5074348  16.9995189
  40.4839039  80.9981537  16.5769029  99.2121696  99.6009636  64.6986151
  99.2322731  99.0873623  65.5061102 100.0100994 100.1287174  64.7305012
  36.0991168  86.5397930  78.2007313  36.3756871  85.8981228  78.8549471
  36.4431953  86.2022400  77.3737478  35.2939677  44.5069075   6.3579071
  35.9665155  45.0868130   6.7151427  35.7693982  43.7151003   6.1064327
  31.3021135  38.8720179  19.2421746  32.0988846  39.3965936  19.1633892
  31.3029814  38.3165765  18.4626126  93.2481384  79.4691992  85.1794338
  93.1366348  79.1433811  84.2863274  93.5338306  78.7045813  85.6794071
  88.8021660  84.4425201  47.3307180  88.5172844  83.5359764  47.4458313
  88.4037399  84.9135494  48.0625820   6.9433838  98.0061817  52.0566940
   7.5091678  98.0531979  52.8273487   7.0749831  97.1211720  51.7165852
  16.3505411  22.0344901  18.4207547  16.7598295  21.3173103  17.9366386
  16.8120253  22.8184795  18.1230569  70.2624321  70.7779646   5.0966746
  70.8882713  70.1403522   4.7531545  69.5676041  70.8098125   4.4390804
   3.4146088 102.1962070  17.8933120   3.6851370 102.7041149  17.1284151
   2.5745168 101.8128204  17.6413357  95.4975986   9.3932480  59.0689611
  95.5527306   8.4692526  58.8251877  96.3799191   9.6156281  59.3660831
  65.2132273  67.4857473  23.8198280  66.1641550  67.5860977  23.8633919
  65.0260067  66.7322397  24.3796492  91.9531441  12.9433501  72.7136040
  91.8805218  12.3159468  73.4328556  92.3028564  13.7356448  73.1212854
 111.6761971   4.5677686  85.1596165 111.7768574   4.6736449  86.1056042
 110.7330322   4.6337709  85.0102329  32.4883556  12.0670438  90.6524086
  32.2645855  12.1885979  91.5751076  32.5022149  12.9531121  90.2905750
  30.5629778  69.4529581   3.3519891  31.2537384  68.7982988   3.4544623
  30.0132990  69.1126728   2.6460907   1.2236292  18.4771192  86.8736267
   0.6716711  17.9510164  87.4522400   1.5874655  17.8470778  86.2516022
  91.3410378  87.3723698  80.7665348  90.7204628  86.8220806  81.2443542
  90.7991791  88.0521011  80.3658104  86.8256950  43.2075071  21.5787792
  86.5035534  42.4328089  22.0395398  86.2440300  43.2962704  20.8237839
  65.9867985  90.8568857   0.9712204  66.6014226  91.2463067   0.3492722
  66.4247282  90.0616882   1.2747177   5.3692859  75.7278156  90.0848770
   6.1484158  75.8758068  89.5488834   4.6506286  76.0931158  89.5688152
  69.3245125  64.2597914   1.3722348  68.4787321  63.8209200   1.4632271
  69.6639061  64.3133450   2.2656421  71.7879009  38.1146002   6.4450091
  71.7078876  38.8850594   5.8826751  71.9206333  37.3871779   5.8371681
  90.5901337  33.5689449   1.7401236  91.2735176  32.9004860   1.6913088
  89.9385071  33.2021070   2.3376551  90.5009556  92.2283268  81.4338589
  91.2234211  92.3756409  82.0442390  89.8977375  92.9533482  81.5972614
  27.5442386  39.2010593  80.8800125  27.7002287  39.8681378  80.2114964
  27.7772880  39.6286964  81.7040539  65.0509834  31.7576003  15.0159669
  65.1385641  30.8050895  15.0517821  64.1597843  31.9278193  15.3209591
   8.7922972   2.5130847  82.2344780   9.3837219   1.7723954  82.1009541
   9.3150038   3.2813761  82.0048332  21.0071182  12.7417934  63.8043785
  21.6035175  12.0405579  64.0666914  20.3412533  12.3040390  63.2740688
   7.1789533  31.2638021  74.7551537   7.7478606  31.1360502  73.9960384
   7.7783591  31.2977338  75.5006695   3.5619527  59.1250181  70.7140446
   3.6963525  59.0848589  71.6609097   2.9807717  59.8747635  70.5862093
  16.4560759  31.4393020  87.2197437  16.4679205  30.9975386  88.0688286
  16.9779050  32.2304296  87.3540688  63.2692003 104.8704147  30.2024508
  62.9272890 105.6489468  29.7628927  63.5188723 105.1776314  31.0739517
  61.9142294  61.0783720  19.5016360  62.0377541  60.1602888  19.7426796
  62.7722597  61.3602781  19.1845405  26.1345601  32.6713085  11.3412750
  27.0477080  32.4761343  11.1308038  25.6289625  32.0691276  10.7953978
  75.9789467 102.0558834  90.2293968  76.8666983 101.9265938  90.5631924
  75.4487753 102.2083569  91.0116482  61.2892771  25.4625368  65.9269905
  61.9321823  25.0381899  65.3588057  61.7477036  25.5840635  66.7584419
 103.5340595 103.7438965  60.8680964 104.1444016 103.1756592  60.3981829
 102.8621101 103.1495380  61.2019491  54.7944784  58.0912971   3.7435186
  55.0879335  57.9035044   4.6350622  54.4169712  57.2668314   3.4369609
  56.4972019  60.0743628  14.4525051  56.1863279  59.1824245  14.2974937
  57.3811626  60.0870848  14.0855169  82.8952694  71.9034433  70.3203011
  83.7332726  71.6986561  69.9055099  82.6750469  72.7769947  69.9968100
  24.4552612  15.8649755  78.4388876  24.0767455  15.5973339  77.6014376
  25.3925753  15.6962693  78.3429146  11.4419961  91.3431549  69.2377186
  10.9364831  91.4576626  70.0424385  10.9797454  91.8717575  68.5872269
  52.5441217 101.8859100   2.7701890  52.5386000 102.2142220   3.6693069
  51.6191769 101.8277740   2.5307515 101.0232353  42.4817514  81.5999031
 100.4723358  41.9232512  82.1483707 101.0680676  43.3126450  82.0730209
  76.6644621 102.3594570  76.2309170  76.1641216 103.0181313  76.7126226
  76.5935850 101.5676498  76.7640638  27.4872041  77.7028847   7.1364295
  28.2585883  77.5153255   6.6016209  26.8254852  77.9934263   6.5087801
 110.4605484  38.0589747  68.7876654 110.6653500  37.9254246  67.8622198
 110.1223278  38.9533567  68.8314772  23.3095241  10.5390072  86.5565491
  22.9994321  11.4436376  86.5980148  23.4350896  10.2866805  87.4713135
  43.1702614  34.2395616  14.6649122  42.4449778  34.8020124  14.9366546
  43.3598042  33.7041235  15.4353750  65.8642864  98.9152241  72.5677919
  66.3131475  99.6764278  72.9356527  66.4802790  98.1925583  72.6883316
  14.2699230  35.5980659  75.8247185  14.9588597  35.0931334  76.2567377
  13.5981905  35.7109785  76.4972210   0.8491435  51.5341043  74.1615772
   1.1570473  52.4220848  74.3430042   1.0532127  51.3940859  73.2369232
  72.2145224  96.6104984   7.5233346  72.6016235  96.5717220   6.6487604
  71.7204618  97.4303055   7.5304514  92.8305244  94.4150448  63.6640596
  93.3318710  95.0502777  64.1752958  92.5247097  94.9081707  62.9027891
  62.0869017  68.0237961  18.3969414  61.9253635  67.6725388  17.5212944
  61.6878414  68.8937378  18.3834088  21.2627864  77.6473331   1.5606314
  20.5178976  77.2548103   1.1053310  21.9096375  76.9436789   1.6125239
  12.9867661  99.4829273  65.3974247  13.6898863  98.9730358  65.7997417
  12.8041971  99.0308666  64.5736933  95.5935574  25.9969616  80.8621025
  95.3186417  26.6941714  80.2666664  96.0081577  26.4556623  81.5928078
  70.7733011  90.4973888  89.2763901  71.0516548  90.0573158  90.0795746
  70.5683374  89.7845078  88.6713886 110.6360912  17.6736248  66.2514830
 110.2430630  18.5020173  65.9766531 110.1279831  17.0039296  65.7936954
  55.0406027  32.0080662   6.7430824  55.8815002  31.5632701   6.6368502
  54.8850107  32.0037770   7.6875424  70.3700352  56.1536694  20.0974035
  71.0924196  56.2287521  19.4739008  70.7148409  56.5252876  20.9093404
  96.8328953  28.5858321  75.2811956  96.5088081  28.6446834  74.3824530
  97.1056080  27.6734447  75.3782034   9.1254675  10.9943950  80.4733562
   9.1164821  10.1848257  79.9627161   8.6964554  11.6380048  79.9094868
  43.0172539   2.9026005  83.8678551  43.9037228   2.5419641  83.8865757
  43.0538416   3.6586633  84.4537354  46.6085482  16.6484213  74.8552322
  46.8847084  16.0417247  75.5421734  45.6917429  16.4258492  74.6934843
  55.2620935  93.6433029  49.2916107  54.3574524  93.6726093  49.6030664
  55.4434681  94.5362186  48.9983034  82.1300983  88.5369396  80.5307674
  81.4267159  88.0736923  80.0759029  81.6882610  89.0109539  81.2352657
  31.2940598  51.6720581  61.1940956  32.2078085  51.4325237  61.0394335
  30.9381819  50.9433174  61.7025471  36.1579418  26.8522596  67.6084948
  36.3801193  26.4821219  66.7541742  35.8031440  27.7186513  67.4092150
 112.4899189   1.5497589   4.4096303 111.5811614   1.4057809   4.6735665
 112.6417262   0.9095225   3.7144440  38.4172344   7.6354659  66.9165754
  38.6819696   7.6314855  67.8364277  39.1757870   7.9870999  66.4505434
 107.4134922  40.1892042  83.5886288 108.0310917  39.8688626  84.2460346
 106.5946674  40.3119373  84.0689373  42.3021555  28.1493068  37.2515130
  41.6021252  28.7671924  37.0407844  42.2077799  27.9917288  38.1909251
  76.7907667 103.9601040  68.6111212  77.0029020 103.8530540  67.6838779
  76.9052601 103.0865860  68.9854097  42.6373434  35.6941867   1.1228336
  41.8312883  36.0498571   1.4970113  43.2842970  36.3893342   1.2430335
  12.3518777   3.8028765  76.7341471  11.6951275   3.1134251  76.6363287
  13.1466627   3.3405605  77.0002556  40.2991772  79.1405010  22.4057627
  39.9820995  79.9775600  22.0666099  40.8261919  79.3756580  23.1694317
 107.6784801  39.4955683  71.1478901 107.7328396  39.8510003  70.2607918
 107.1046543  38.7338281  71.0659599  13.1082511  15.5885184  46.4118099
  12.2566843  15.7826376  46.0201693  13.6394930  15.2676773  45.6830597
  18.8037777   3.9460084  79.6822786  18.9420080   4.5190746  80.4364109
  19.6662176   3.8766986  79.2728567  22.3124766  40.7841682  47.7398825
  23.1691885  41.1920261  47.6136637  22.4315786  39.8809767  47.4461317
  53.1216908  45.6096125   1.3498308  53.4067917  46.3127089   0.7662144
  53.6567211  45.7191229   2.1359499  10.5012417  67.4059391  80.2875710
   9.7327667  66.8368483  80.3301430  10.5903041  67.7548742  81.1744404
 110.7563210  85.8696079  67.2619486 110.7188416  85.7005596  66.3205433
 110.9028625  86.8130589  67.3302317   7.2772592   2.0905855  89.4693565
   7.4262565   1.6136512  88.6529255   6.4103979   2.4823666  89.3630981
  76.1087465 103.0865383  79.5870113  76.8074751 102.4353313  79.6497250
  76.5301800 103.9133644  79.8215199  89.7646427  87.5890446  57.1610403
  89.6457863  87.2391891  56.2780285  90.4888153  88.2093811  57.0774174
  10.0597656  12.0816517  57.7438784  10.0436890  11.8160748  58.6633587
   9.6678013  11.3449907  57.2749186  24.7441936  99.1206741  74.1871500
  25.5020833  98.5937405  73.9338160  25.1205492  99.9201012  74.5552635
  16.1058795  26.4031863  78.7480021  15.4494214  27.0997763  78.7404442
  16.3296890  26.2749815  77.8262091  88.1759644  71.0054493  72.6169014
  87.9113102  71.8130684  73.0572891  88.5819817  70.4790783  73.3056068
  74.4681311  89.5538902  84.1715240  75.4149485  89.6664047  84.0871906
  74.0959311  90.3166485  83.7289333  98.0880737  88.4503365   7.9265511
  97.4830151  88.6126423   8.6502856  98.0505562  87.5035572   7.7907485
  74.5870352  93.8808250  47.2089672  74.0441990  94.3497086  46.5751648
  75.2138472  93.3941078  46.6737652  96.6447830  54.5146704  23.6107063
  95.7959652  54.6346235  24.0365529  96.4317989  54.1585875  22.7481103
  99.3667793  67.1506262  62.7070189  98.7755966  67.0990419  63.4580660
  98.7874126  67.2635889  61.9534874  22.5520587  97.8127193  30.6513381
  22.4879599  98.1279278  31.5528727  21.8131900  98.2223225  30.2012968
  27.7570438  41.8154573  31.8936419  26.8197656  41.6221523  31.9129467
  28.1650138  40.9955263  31.6152358  21.1788082  63.8710308  39.7969031
  20.8028507  63.1146431  40.2471972  21.5506530  63.5101748  38.9920759
  20.2418184  86.5626144  17.0692694  20.4499817  86.4636230  17.9983020
  19.7257197  85.7853794  16.8553174 104.8573971  92.6659966  36.8619752
 104.2674541  92.2898102  37.5151777 105.2129650  93.4487057  37.2829032
  83.5110569  56.8785620  32.4213839  83.1911659  56.3258219  33.1343937
  83.1311798  57.7394629  32.5968051  96.3759422  67.6857424  42.8134203
  96.3431454  67.6881075  41.8567896  96.1421108  66.7905855  43.0588818
  21.2866259  60.4122972  79.8376560  20.3911924  60.5916500  80.1244736
  21.2609196  60.5252028  78.8874865   8.0256373  86.5048504  57.0471525
   8.4704155  87.0527840  56.4004803   8.1071526  86.9896221  57.8684855
  13.3215249  66.0189915  52.5304508  12.6857340  65.3034925  52.5381613
  14.1445100  65.6110144  52.7996731  14.9778080  87.3307991  47.1695375
  14.1326284  86.9134712  47.0029879  15.1021862  87.9239464  46.4286327
   0.2838694  87.2082138  41.1319113   0.8023210  87.9953575  40.9650135
   0.7642085  86.7462730  41.8190145   5.8269852  75.1400852  28.9577127
   4.8754784  75.1399708  28.8534713   6.1659443  75.1692724  28.0630136
  28.5213270   0.4190320  19.2692542  28.9961996  -0.1426345  18.6566675
  28.2703962  -0.1652556  19.9847054  17.1054983  94.1722965  44.4087791
  16.5403008  94.4523525  43.6888123  16.6091907  93.4817982  44.8482370
  32.8637099  75.1136923  31.0484529  32.2598481  74.7280312  30.4137516
  33.7332916  74.9385691  30.6887436  94.1754436  79.4416761  42.2703314
  93.9967346  80.3816605  42.2971439  93.7819576  79.1463852  41.4492321
  19.3915474 103.5181141  31.3369560  18.7053609 102.8527355  31.2854218
  19.1659999 104.0353870  32.1101236  13.9720309  48.7088680  27.5491548
  13.2223642  48.5200262  28.1135774  14.7319126  48.6300135  28.1258631
  91.8882751  74.4870949  64.2088223  92.5222778  73.8034296  64.4253397
  92.1092892  75.2124119  64.7930288  64.9153471   2.0538615  33.7502360
  64.4388437   1.2411346  33.5809612  64.2674112   2.6319388  34.1530252
  11.2889159   9.3705016  11.0357368  11.6354060   8.5718977  10.6377316
  12.0649242   9.8918891  11.2411582 109.6167755  66.4898825  64.1564035
 109.3126392  67.0680475  64.8560190 110.3798294  66.0463762  64.5269346
 105.3337479  87.6981735  22.2658563 105.7820225  87.9432678  23.0753064
 105.6956673  88.2872295  21.6038394  33.1709003  86.6808987  45.0651121
  32.9466534  86.1460114  45.8265877  33.9147711  86.2296009  44.6660900
  78.6860609  75.5156898  69.2669106  78.1795263  75.9780359  68.5991621
  78.6058235  76.0615873  70.0490808  70.1941204  84.1974163  34.3188763
  69.3684912  84.1879272  34.8031020  70.8636999  84.0375233  34.9839568
 111.8703301 102.6463223   0.9318616 111.5837039 103.2186604   1.6435543
 112.2208828 103.2432938   0.2708264  86.6538525  76.2435770  13.3344865
  87.5223827  76.0652637  13.6951685  86.8043900  76.9134760  12.6675498
  97.6068211  84.6626091  47.8771496  98.2950211  84.5407200  47.2231150
  98.0786896  84.8025703  48.6981106  44.1570616  22.2096682  33.6237550
  45.0911427  22.0757437  33.7843513  43.7223959  21.5812922  34.2003298
  49.6806002   5.4355365  71.6948986  50.2232409   4.8042792  72.1674395
  49.9778509   6.2894392  72.0091057   3.6529526  97.1501827  25.8072138
   3.2948720  96.3076878  26.0868812   4.0189710  96.9787025  24.9395394
  45.7200527  93.3704567  15.3219604  45.8218718  93.3286858  14.3711078
  46.1489487  94.1885281  15.5730546  20.2043009  90.9498787  37.6919723
  20.9944034  91.1759853  38.1827307  20.3445005  91.3291264  36.8243647
 105.1914120  78.4897709  34.0833926 105.8663464  77.8713465  33.8036752
 105.5879974  78.9622545  34.8153186  78.4509182  98.4746361  45.3952169
  78.6802340  98.9043522  46.2192202  78.6085320  97.5446606  45.5581093
  52.3819256   4.2201051  81.7984772  52.2125673   4.6756032  82.6231384
  51.5552759   4.2770284  81.3192654  35.0087523 101.4192581  15.1822615
  35.7433510 101.6783905  14.6259856  34.2386007 101.7865753  14.7484756
 112.1086884 104.0583706  50.0477171 112.1092987 103.9675426  51.0005951
 111.5188503 104.7927761  49.8775053 107.1229458  64.9652195  53.0613184
 107.6569271  64.3012428  53.4974670 107.0127392  65.6530809  53.7177753
  28.4905219  60.6782436  40.5432034  27.8393245  61.3484192  40.3357458
  29.2030644  61.1589241  40.9644651  27.2885299   5.4942620  77.3081446
  28.2251692   5.4122859  77.1286535  26.9632626   6.0769957  76.6219568
  60.6431293   2.7417013  52.9610109  61.2812376   2.0328093  53.0417728
  59.9346876   2.3677188  52.4371052  24.6957994  42.2761583  27.3579383
  24.5261955  41.6367197  26.6661406  25.0230289  41.7548227  28.0909872
  27.8401804   3.0559999  16.2361574  28.5125470   2.4450696  16.5376854
  27.0510960   2.7979842  16.7126095  27.4610615  83.8692856  36.4724827
  28.0019760  84.6564484  36.4090276  27.0099354  83.8200951  35.6296921
  93.8890648  68.8582706  55.2355719  93.7109089  68.8528395  54.2951155
  94.7638512  69.2393684  55.3114271  60.8591604  83.2567215  26.6956162
  61.0525179  83.0934334  25.7724810  59.9747658  83.6228943  26.6939521
 107.6717758  73.6038256   4.0622619 107.0543385  72.8818750   3.9447743
 107.2592449  74.3460751   3.6205497  -0.0935667  86.8236446  28.5847068
   0.6478483  87.2681904  28.9956999   0.2190000  85.9328461  28.4265423
 102.8578663  41.8548059  14.1816068 103.7802601  41.7825460  13.9362466
 102.8728485  42.2320127  15.0612211   7.4862307  82.5466061   9.5052236
   8.3315992  82.0977020   9.5135850   6.9906235  82.1372128  10.2144480
 100.1987362  59.0794134  35.8164191  99.3454266  59.5041609  35.9041142
 100.0116920  58.2575655  35.3627586  27.2819591  81.0773659  22.2087502
  26.7567778  80.4028225  21.7781615  28.1476235  80.6807804  22.3066258
  59.3998671   5.7350332  35.6043315  58.6199188   6.2080896  35.3142834
  59.0745497   4.8729071  35.8634448   4.1900548  91.8177700  25.7241058
   3.5528970  91.1108780  25.6213284   4.8972431  91.4297485  26.2394238
  55.0402117  77.0851564  56.0459518  55.8336878  76.6747952  55.7021093
  54.3438339  76.4565086  55.8559752  49.3782425  18.0567527  27.0914745
  50.0056362  18.1615376  26.3761926  49.9179745  18.0304801  27.8815579
  17.8925085  53.0240726  33.1252289  17.1233022  52.7881002  33.6437535
  18.0803549  53.9291859  33.3736539  94.2589188  96.2920952  20.2484989
  93.9048290  95.6748009  19.6083486  94.4533634  97.0793629  19.7399235
 110.3553200  96.2988281  63.4739876 111.1326122  96.4091206  62.9263735
 110.6559563  96.5007496  64.3600368  16.0725915  22.7422738  25.9417295
  16.8732011  22.5223708  26.4180684  15.8090734  21.9220018  25.5246615
  16.0428417  82.3309135  33.6041164  15.6490302  81.8965244  34.3607187
  16.6062701  83.0061531  33.9820457   6.2887239  96.3084126  55.9845877
   6.5952730  97.0385361  56.5223360   6.9640440  96.2046051  55.3142166
  25.1896143  91.1844730  21.5103531  24.9684381  90.3857040  21.9891953
  25.2009869  90.9173584  20.5912471 109.0968609  86.1053658  69.2535448
 109.6139908  85.5550098  68.6653996 109.7333813  86.4516449  69.8789835
  30.2282429  83.3419895  42.5132370  30.4775167  84.2617893  42.4234343
  29.4427752  83.3589935  43.0600309  53.9027882  20.2021217  50.8042192
  54.0818357  20.4762554  51.7036772  53.4470320  19.3653083  50.8950949
  82.1537781 105.7565308  17.0213044  81.9048309 106.1089230  16.1668587
  81.6870880 104.9230003  17.0818305  67.8524065   9.0235591  40.4984093
  67.2522593   9.5712465  41.0044670  68.1629467   8.3680958  41.1230373
  57.8455877   4.8797727  44.6126842  57.7581692   5.8293325  44.6959019
  57.5712204   4.6917346  43.7151337  11.4381206  73.2972860  23.6525917
  11.8320131  72.8351307  22.9126620  12.1838617  73.6373711  24.1470051
  92.3828888  82.9289818  17.0957744  92.2460461  82.8398895  18.0389452
  92.5969696  83.8535690  16.9710922   1.9139071  92.9493427   8.7448043
   1.8175505  93.9016342   8.7540931   2.2496925  92.7510929   7.8706306
  99.8888493  46.7717600  72.9302168 100.2331448  46.8927956  73.8151121
  98.9642048  47.0097208  72.9983521  61.5083170   9.5734334  21.6056728
  61.0438156   8.7524021  21.4432573  62.0687628   9.3866086  22.3588157
  18.9283645 103.6868382  26.8047023  18.2723415 104.3072891  27.1223545
  18.9710248 103.8452339  25.8616662  90.9595966  97.3242855  29.7672963
  90.5064106  97.4236965  30.6045389  91.0435772  98.2172298  29.4328976
  30.0918674  55.1667833  75.2922821  29.8635101  56.0753298  75.0957346
  30.8784628  54.9998188  74.7730303 100.3572519 105.2821539   0.3585133
 100.5535753 105.1953266  -0.5743042 101.1695917 105.0317619   0.7985577
  34.5894551  18.7847090  20.8765841  35.4242420  18.9471900  21.3158607
  33.9271235  19.0307820  21.5223360   7.6216412  40.2174902   1.9085060
   7.0357287  40.7996845   1.4247799   7.9911506  40.7687187   2.5983196
  86.3915634  15.1577795  15.8559215  86.0416412  15.2054119  14.9662471
  86.3294029  14.2313373  16.0884583  26.7827535  72.3150921  48.2750988
  26.1599803  72.4550819  47.5618076  27.6089358  72.6676130  47.9443598
 111.9988605  98.8438892  30.3495002 112.0085778  99.7522449  30.6512117
 111.9104181  98.9082909  29.3985724  10.5971026  94.6262836  57.8104687
  11.2745607  94.7464085  58.4759426  11.0677850  94.2913055  57.0472670
   8.0674338  79.6082544  68.7224627   8.7637824  80.2013111  69.0046310
   8.1866604  79.5321035  67.7757788   7.7876979  61.3349819  35.3617096
   8.0225551  60.4120493  35.2654505   7.2821867  61.3700533  36.1737823
  80.2000427  29.3830371  12.3359025  80.1507854  29.4693208  11.3838732
  80.8428669  28.6887002  12.4805248  36.8519711  14.3184841  78.1600714
  36.4814210  14.9589646  78.7672853  36.7179608  13.4743822  78.5910749
  11.4353693 103.2575226  14.1574991  11.4646375 103.4733868  13.2254171
  10.5635452 102.8851795  14.2898560  29.4756079  16.5056705  56.2315559
  28.8103127  16.6288400  56.9086409  29.0062261  16.0923493  55.5069351
  56.5624428 103.8888168  15.7721567  56.0137606 103.1571960  16.0548306
  57.4481487 103.5269451  15.7437170  98.3176327  87.5520229  38.5456204
  98.8466644  87.0516586  39.1669035  97.5749493  86.9810200  38.3491564
 101.3811588  92.6123333  68.3114052 102.0698929  93.0963993  68.7669754
 100.5664158  93.0144024  68.6126852  61.9304276   0.6870338  34.4526005
  62.7823591   0.2676119  34.3320584  61.3615322   0.2626906  33.8103199
  51.6712332   7.3431599  36.8306828  50.8628941   7.6855850  36.4491534
  51.4544582   7.1858102  37.7496386  81.7282677   8.2032543  34.3939710
  82.1559429   7.3740393  34.1801381  80.8556843   7.9516685  34.6965098
 109.5406342  98.4377193  65.5028009 109.3113232  98.6182976  64.5911884
 108.7623310  98.0155468  65.8664465  25.3760386  83.0918217  20.7667470
  25.1829433  82.1566868  20.8336568  24.5170140  83.5140705  20.7626104
  12.6350844  94.4396210  32.5218868  12.4172449  95.3683853  32.6005030
  13.5470581  94.4312763  32.2312522  54.5574570   6.4040136  14.5170319
  54.5315790   5.6868166  15.1504290  53.7970829   6.9432217  14.7345614
   5.8431810  71.1057138  39.1347671   6.0039574  70.6516218  39.9619198
   4.9481770  70.8624887  38.8980365  43.9371586 103.2259560  33.4706402
  43.4725237 102.4622345  33.8127971  44.1175795 103.0068302  32.5564933
 111.2544155  29.2587447  91.0575199 111.5944004  28.5667968  91.6248322
 111.5558815  29.0196061  90.1810646  60.8247042 105.1904392  47.2577286
  60.3752184 104.5083237  46.7588139  60.1603317 105.5228329  47.8613472
  37.2637582  52.7656889  54.8389053  37.2287178  51.9029903  55.2521324
  38.1661105  52.8468323  54.5300245  35.1163507  17.5420356  38.6599469
  34.1688108  17.5098217  38.5281873  35.4740214  17.7067912  37.7875042
  56.3643456   2.8336835  28.1789398  56.8741322   2.0716089  28.4538817
  55.7889509   3.0175102  28.9214778  35.9776115  74.9594116  35.3884101
  36.8468332  75.3339529  35.5312562  35.4661632  75.6768942  35.0144124
  28.4874701  91.9050503  59.4586182  28.0334306  91.2109089  59.9363661
  29.0866041  91.4409828  58.8738823  41.6818666  84.0167236  54.3887997
  41.9027567  84.3662643  53.5255098  40.7248592  84.0079594  54.4059420
 111.0440540  79.4331932  74.8388290 110.4956341  79.2517614  75.6020784
 111.2185097  78.5720301  74.4590998  70.6647205  18.3294904  87.9451466
  71.2345505  18.3783019  87.1775913  69.8843384  18.8246167  87.6959705
 105.5039597  44.5967484  17.7376294 105.3921127  45.2056646  18.4676611
 106.0540199  43.8976145  18.0910027  22.6275349  78.8711119  59.3832445
  22.8325677  79.0361738  58.4629488  23.1962514  78.1411695  59.6281481
 102.5892162  52.2174883  27.9160714 101.7243671  52.5124359  28.2011604
 102.6584053  52.5187349  27.0101476   7.7998352  35.8681250  11.3165212
   8.2728362  35.5575347  12.0885551   6.9375390  36.1181331  11.6484439
  78.9710522   4.2184255  11.2381983  79.9185801   4.1381413  11.3476503
  78.7190437   3.4344709  10.7502043  96.2944412  70.0449753   1.9856729
  95.7678986  69.7165012   2.7144331  96.1054802  70.9829092   1.9573112
  45.7825994  47.5499535   0.0724621  45.6524372  48.4233475   0.4418797
  44.9070787  47.1633434   0.0574238  29.4248724  63.3021736  13.3512378
  30.2369189  63.7781477  13.1772888  29.1161108  63.0313015  12.4866402
  94.5498943  51.6054964  23.9633179  94.9670315  50.9366369  23.4203124
  93.6762810  51.2578344  24.1426539  39.2045736  57.9695034   1.7002374
  39.0294385  57.9111767   2.6394695  38.5225511  58.5515404   1.3651139
  16.7315698  51.5017033  27.6109195  16.0318589  52.1339655  27.7748728
  16.9596946  51.6303062  26.6902399   6.4378470  64.5123339  45.1468229
   6.9567138  64.8545980  44.4189072   6.7927802  64.9500132  45.9205770
   1.7105316  60.5046368  14.1216266   2.5133598  60.5546618  13.6027849
   2.0033896  60.2282476  14.9900019  32.0085239  68.9423466  27.2531533
  32.0101023  68.2586288  27.9230475  31.0815096  69.1014481  27.0754886
  26.0165644  65.7341671  24.4213629  26.6404080  65.1013947  24.7772408
  26.4455318  66.0789251  23.6381865 101.7714405  31.2297821  40.3002691
 101.6352940  31.9153309  39.6462679 101.1717796  30.5298424  40.0419569
 109.6801376  65.0281811   3.0832803 109.5218468  65.7095432   3.7366754
 110.5517673  64.6928787   3.2932097  79.9090481  69.6852875  35.1763821
  80.0919151  70.3624773  35.8276939  80.5992031  69.7902489  34.5214796
 101.0481453  39.8884606  43.0304432 100.8365822  39.8503518  43.9631939
 101.3946438  39.0195060  42.8277397  19.8170018  49.7686481  24.5345306
  19.6192706  49.4693136  25.4219604  20.7493162  49.5835876  24.4214964
  14.0876365  98.3183479  84.9429798  14.0493035  98.5128117  84.0065289
  13.2522249  97.8916550  85.1333904  24.2397070  34.2051840  19.9743056
  23.8911295  34.7439456  19.2640495  24.5301342  34.8360014  20.6330585
   7.2927201  95.3562737  50.8311462   6.3718116  95.3321171  50.5711937
   7.4740487  94.4731617  51.1527967  15.5180943  48.6245155   0.8398517
  15.9141469  49.4393349   1.1487818  14.9448490  48.3503723   1.5557200
   7.1677607  94.9931622  45.0920725   6.5424043  95.1915169  44.3950653
   7.4833721  94.1129875  44.8873425  89.9197769  77.6501274  48.2981443
  90.4683399  77.3795319  47.5618744  89.2992878  76.9301939  48.4118176
   7.2998530  31.0531282  49.1220379   7.0661992  31.4213538  48.2699537
   6.4596206  30.8766532  49.5452404 110.8942413  71.4654446  17.5525272
 111.2202930  72.3638105  17.4989903 111.3368702  71.0070372  16.8382573
  11.3490999  53.7071896   6.2548399  11.1679196  53.1821680   5.4752523
  12.2900069  53.8784552   6.2149078  68.7889481  31.8125296  72.9818106
  68.7811995  32.0069909  73.9190197  68.5034275  32.6260614  72.5660276
   0.3266116  83.4497261  38.9015555   0.5087249  83.0191326  38.0662990
  -0.4545254  83.9769363  38.7339306  71.9651222  20.9366822  84.3535328
  71.4149666  21.3034964  83.6614323  72.6226997  21.6120434  84.5200157
   0.2409155  79.9636030  48.0535841   0.4968531  80.5789661  48.7406540
  -0.4490393  80.4178905  47.5700378  27.8473639  60.3179121  35.8967423
  28.2090712  61.1890697  35.7340193  27.2427154  60.4424381  36.6282654
  98.8714218  22.5198078  78.9910793  98.7246418  22.5116873  78.0452347
  98.0487156  22.8430343  79.3583632  19.8416960  42.3945761  47.4345112
  20.7127142  41.9993782  47.3973846  19.2398179  41.6585302  47.3240089
 101.1563301  46.2286186  54.3545008 101.1960125  45.2862835  54.5177841
 100.6394577  46.5760899  55.0813723  18.6365211  50.2715063  28.9819908
  18.7666166  50.7674408  29.7902966  18.0626976  50.8243036  28.4515452
  25.4167366  32.6546216  29.0513802  25.5105472  31.7037892  29.1092801
  24.5468283  32.8317094  29.4093299  37.0348644  82.6091862  76.5439701
  36.2184405  82.1102619  76.5164614  37.6901364  82.0167542  76.1753607
 104.2655849  88.8247585   9.4655752 103.6248112  89.0842533   8.8035297
 104.1600800  87.8764915   9.5423061  86.0101700  31.8953896  56.9627428
  85.5344582  31.5989923  56.1868000  85.4076672  32.4993420  57.3968744
  88.3166504  47.5578737  62.5191355  89.0880966  48.0391598  62.8182364
  88.5063839  46.6444016  62.7331352  89.8797321  41.3643312  17.4286926
  89.3192387  41.2530422  16.6607809  89.9316120  40.4905319  17.8160131
 110.9732533  34.3720055  88.4276581 111.0053539  33.6227512  89.0224838
 110.4595089  35.0289536  88.8974571  97.4911404  53.7755632  39.5545578
  97.0167637  54.3830633  40.1221323  98.3862877  53.7804317  39.8935699
  15.4583967  40.9720421   5.8153051  16.0200477  41.7068911   5.5687702
  15.0694168  41.2369919   6.6488081 107.1119213  47.3041677  17.9111540
 106.9913006  46.4830256  18.3880317 107.6867867  47.0748615  17.1809649
  95.2329159  75.7297564  46.6822910  95.6309509  75.1689577  46.0164785
  95.5579567  76.6074419  46.4816809   1.0894753  48.0371857  62.1379709
   1.6841902  47.9343367  61.3950253   0.5274541  47.2631073  62.1038294
   7.3775619  43.0358791   3.5210523   6.6852117  43.4510756   3.0067593
   8.1907308  43.3582735   3.1323984  13.5464525  67.4961042  44.2100334
  13.2540131  67.5362635  43.2994890  12.7408922  67.3888969  44.7158098
  88.4668159  44.2912292  26.8327951  88.5609150  44.0389109  27.7513313
  88.2950115  45.2325106  26.8593717 104.3349743  53.5329676  10.4797864
 103.7216854  53.7862968   9.7899008 103.8310242  53.6133528  11.2896073
 104.0186596  32.9363751  87.0062160 104.2770576  33.6812520  87.5490093
 104.6516323  32.9322481  86.2881947  52.0981169  62.6266146  13.4976971
  52.5508404  62.8573084  14.3089020  52.5568724  61.8487978  13.1802487
  91.3150024  27.4337697  88.9021206  91.8605328  26.6679549  89.0814400
  91.4739037  27.6301455  87.9788589  86.3064671  89.0970421  36.0419703
  86.0030842  89.5624447  36.8214512  86.9091415  89.7078323  35.6177449
  11.4136982  83.9915657  68.1767702  11.5619862  84.6896839  67.5389051
  11.4883602  84.4243908  69.0272522  14.1140079  77.2313356  21.8791318
  14.9713850  77.6561213  21.9054866  14.2377365  76.4121485  22.3585653
  15.8804142  72.3509216  40.0408077  15.4317832  73.1095743  40.4141808
  16.5670753  72.1429491  40.6744289   6.0069621  74.7905874  31.7116117
   6.8643880  74.3918276  31.8600869   5.9978598  74.9980307  30.7772064
  28.4889579  97.7487469  20.6202507  29.2168140  97.1288490  20.5735540
  28.4177423  97.9649258  21.5499949  14.6083319  86.8270588  28.4430790
  14.6133184  87.4212074  27.6926136  14.5920980  87.4049473  29.2059779
 110.9467316  76.7681170  35.6265974 111.7344284  77.2860718  35.4608035
 110.2233505  77.3734283  35.4636574   1.4033496  57.7195501  69.2108107
   1.5206712  58.6518192  69.3934107   1.2354303  57.3269701  70.0674963
   0.2070892   1.6091898  74.9760103  -0.7021370   1.5410617  74.6846390
   0.6117437   0.7896286  74.6917486  91.4635563 103.9768314  48.8272572
  91.5293217 104.8766041  49.1471434  91.7348194 103.4379959  49.5704269
  27.9672742  89.4738674  70.8265924  27.7833271  89.8657703  69.9728918
  28.0720878  90.2210903  71.4155817  15.4714155  54.4197655  20.5971670
  15.9215462  53.8626671  21.2321949  16.1655033  54.9573565  20.2157664
  13.5897803  69.4391060  29.3394279  14.0038800  68.5761404  29.3328691
  13.6422050  69.7229910  30.2520585  34.2297244  83.1689930  14.1115952
  33.9717317  83.0260086  13.2009768  34.0246797  84.0892315  14.2769563
 106.3961029  66.3390112  25.2187443 105.6471920  65.7428885  25.2173543
 106.5266228  66.5617752  24.2970204   0.7191071  52.5723028   3.6471900
   1.0000490  53.2751226   3.0612302   1.2287131  51.8110323   3.3696920
   3.5836816  91.8048286  31.2639689   3.0723625  92.1858025  30.5500746
   3.9229342  92.5596809  31.7449522 100.0899792  71.8903971  40.1809835
 100.2742767  72.7172613  40.6265831 100.8178329  71.3189697  40.4257965
 109.4326115  91.4373398  30.5234814 110.3278542  91.4193344  30.8617640
 108.8847733  91.2493610  31.2855649   3.5784161  64.1070795  18.3871067
   4.3172270  64.5542574  18.7999284   3.5767174  64.4292927  17.4857700
  47.6296043  81.5885258  20.0700140  48.3197498  82.1638298  20.4000831
  47.1288776  81.3441563  20.8483386  90.2830410  51.8413925  53.0525827
  90.0535202  50.9740162  52.7191019  91.2362957  51.8827963  52.9762745
   5.9887320  90.0953960  41.0361910   6.2747633  89.7657490  40.1842785
   5.9942663  89.3255806  41.6050434   2.7825359  68.9684916  29.9537897
   3.0121067  68.9350462  30.8824515   3.2401735  68.2220840  29.5669055
 111.8820858  81.2218475  52.5307465 112.5160408  81.5027046  51.8708515
 111.7640400  81.9888020  53.0911779 112.0592499  65.5416393  37.6948023
 111.6788006  64.7399998  38.0537748 112.8956890  65.2635479  37.3216033
  99.3474865  62.9550695  66.8780470 100.1028538  62.7698231  66.3200712
  99.2622280  62.1786165  67.4312973 110.1785660  70.5003881   1.4969856
 110.7673740  70.1441097   0.8316988 109.4052887  69.9375391   1.4586303
  81.1919785   7.4905020  82.1195221  80.4798222   8.1215733  82.0154953
  80.8205700   6.7982352  82.6663780  93.9005947  21.4059162  56.0179996
  94.7926903  21.6498065  55.7711983  93.3638096  22.1481299  55.7401133
  31.6738296  59.5952606  32.5266719  31.4177632  60.0116777  33.3496308
  31.2894607  58.7197685  32.5714922   2.4515052  91.9679451  17.5653660
   2.2794753  91.1352539  18.0049729   1.6050072  92.4147511  17.5589204
  33.5989666  80.7730293  33.7136984  33.6281443  80.4258347  32.8221607
  33.2807779  81.6699505  33.6111426  17.2113085  53.1970024  39.9408960
  16.6990519  52.8696346  39.2015338  16.9282568  54.1054678  40.0448465
  27.8191376  94.3663120  46.3516140  28.3789349  94.9288940  46.8867397
  27.0102167  94.2833805  46.8565893 100.5579662  78.1598282  21.3169909
 101.3210487  78.0687761  21.8876433 100.6783867  77.4870348  20.6468606
  76.8103075  17.1418166  67.4121332  77.2511768  16.2947953  67.4786425
  76.1822081  17.0295358  66.6986132  35.4449296  85.4563046  52.2587061
  34.8676920  85.8233356  52.9282665  35.9998751  84.8377800  52.7337885
 101.1181831  93.4542370  16.3271642 100.7208157  93.3843613  17.1951795
 100.4424858  93.8635254  15.7866633  20.7858753  69.3443680  14.8064315
  20.0346947  69.1428852  14.2484319  21.0860419  70.2014065  14.5037448
   9.9595690  72.9594755   0.2856482   9.1869891  72.9094172  -0.2772423
   9.6879524  72.5416708   1.1028975  32.4744511  86.0530567  26.3016415
  33.3645701  85.7403374  26.1399841  31.9474506  85.2560997  26.3596869
 112.5501656  77.2354746  25.5543685 112.3111830  76.3116264  25.4794264
 111.7186555  77.7044201  25.4842448  78.1078148  21.6422033  72.2734594
  77.2440672  21.9238520  71.9720602  77.9255724  20.9539104  72.9132032
  93.9210606  65.0040245  24.6137524  93.5547638  65.8360195  24.3140125
  94.6889877  65.2520227  25.1285458  29.6084762  80.8767700  41.3679695
  30.0597382  81.4464474  41.9909096  28.9342904  81.4338398  40.9788847
   0.3800490  35.5882740  19.1769779   0.8768731  35.4250073  18.3752656
   0.1225894  34.7178030  19.4806635   0.6268725  62.4372435  35.6806421
   1.0463025  62.1748352  34.8612189  -0.3014787  62.5143766  35.4605389
 110.9352493  86.4892387  33.7619710 111.7263794  87.0276260  33.7841105
 110.3068256  87.0075035  33.2592726  21.6832995  23.3272386  84.0027428
  22.1241236  22.4795938  84.0611076  20.7617402  23.1299758  84.1702080
  18.3190906  21.8119240   3.6803591  18.2372093  21.8905926   4.6308002
  18.9887965  21.1400867   3.5524487  25.7888246  79.5678329  11.4339232
  26.2287378  80.1721954  12.0317984  25.8689618  78.7125111  11.8561018
  15.9681153  91.4242744  34.5486045  16.8262017  91.8105888  34.3734479
  15.9331155  91.3405991  35.5014992  42.2148514 100.4453850  17.2544301
  41.6939020 100.4005051  18.0561984  43.1072474 100.6124401  17.5576711
  94.5954227  64.8608494  46.7279577  94.3187141  65.2686024  45.9073448
  95.4716587  65.2120590  46.8863773  14.5916688  48.5962439  44.8351574
  15.4599476  48.4257507  44.4701147  14.0044332  48.0354071  44.3283510
  63.4637833  97.3710442  42.6384878  63.1753683  96.7636299  43.3197355
  63.5215616  96.8344212  41.8479586  17.8135109  72.6642895  14.2798388
  18.0863476  72.9348660  15.1565266  18.0659723  71.7426586  14.2242098
 110.9595490  90.5146503  60.3239775 110.5510807  91.3432312  60.5746746
 111.8996906  90.6915665  60.3565645  36.9608998  90.2480412  44.7400522
  36.0548234  90.1107025  45.0164413  37.0560431  89.7091579  43.9546967
  21.1146569  64.7548008  31.5938473  20.3093171  65.1840734  31.3050890
  20.9477401  63.8210821  31.4652419 105.9559155  60.9742451  44.7465897
 105.4675198  61.4128065  44.0499020 106.5328789  60.3641272  44.2871284
  34.6710467  77.7505064   3.1240651  34.5604777  77.6218033   2.1820235
  33.9797926  77.2205353   3.5209697   0.5785645  54.1906214  12.0082748
   0.5131990  53.4286785  12.5839460   1.3059139  53.9853144  11.4208710
  42.6895475  76.0096979  44.9957561  42.3158836  76.7959309  45.3938150
  43.2229805  76.3380623  44.2719746  20.1223922  87.6103401   7.4752027
  20.0490093  87.3509026   8.3936453  19.3783283  87.1873379   7.0466411
   9.1194141  29.0921140  48.2054901   8.4039736  29.5956373  48.5938740
   9.7529840  29.7528267  47.9257059  39.9790168  12.5668108  28.0434299
  40.2235508  12.5958264  28.9684129  39.0325260  12.4241841  28.0502701
  23.1661725  96.6375351  22.2640491  23.7375832  97.0386124  21.6091776
  23.7614036  96.1561489  22.8386807  93.6008549  42.1598434  57.6197243
  93.4398174  41.5059757  56.9394636  92.9930305  41.9292307  58.3222961
  32.1000767  88.7286472  42.2914362  32.3631239  89.0151882  43.1660414
  32.0954967  89.5301056  41.7681074  31.8231368  87.2101593  32.6542640
  31.3151169  86.8237114  31.9409561  31.9500351  88.1217670  32.3914123
 111.5393543 101.7349720  44.5234537 112.3143578 101.7748356  43.9630985
 110.8625412 102.1977043  44.0294456 104.4500637  63.2080984  49.1200447
 105.1518917  63.0692863  48.4841108 104.9012470  63.4810019  49.9189138
  98.0255127   9.1714132  25.9748912  97.3440647   8.4992933  25.9856415
  97.6737976   9.8600876  25.4107499  98.4714985  82.9988289   6.7061353
  99.3199825  82.7002144   6.3788134  98.2302952  82.3531532   7.3703313
  34.2492032  89.2355537  45.7423019  33.9471483  88.3600807  45.5003738
  34.0151238  89.3228436  46.6663265 111.6590500  76.7286158  42.3807001
 111.6707516  77.1193218  43.2544518 111.6040707  75.7864285  42.5403547
 112.0111752  70.9575796  39.9712110 111.0650444  70.9695053  39.8265338
 112.3240662  71.7716932  39.5768118   3.3203873  72.2219229  51.5973711
   2.9468161  71.4203978  51.2309885   4.2290542  72.2219992  51.2964439
  31.0573530  74.4191647  41.8587446  30.5281639  74.5742893  42.6411295
  30.4803061  74.6478319  41.1300755  71.7552567  16.1734724  79.4291830
  72.3584890  16.6797674  79.9732542  70.9133959  16.2393391  79.8799133
  85.6578255  49.1699791  90.5093670  86.5717602  49.4438505  90.5863953
  85.6150055  48.7118435  89.6700096  61.8281269  75.9536552  12.4456084
  61.2199163  76.5920353  12.8181410  61.5779400  75.8942127  11.5235960
  42.3404026  77.3341131  50.7825899  42.7583027  76.8673372  50.0589085
  42.6187372  78.2434464  50.6735992  14.6985412  74.0855885  18.5698223
  13.7518203  73.9472866  18.5984993  14.9559927  74.1712666  19.4877601
 108.6010170  93.0421448  20.9026027 109.4578171  92.8807735  20.5075145
 108.7976265  93.3059788  21.8014741  11.2193465  74.5387125  27.9096746
  10.4748404  74.0396833  27.5736523  11.7120028  74.7893381  27.1281958
  73.3009672  23.3279777  85.0273418  73.3517647  24.2438865  84.7539139
  73.2620859  23.3651257  85.9830284  13.8986599  58.0625105  20.8762908
  14.4446230  57.7017879  20.1776958  13.0074334  57.8041220  20.6413770
  98.3979034  74.1412067  37.5351882  97.8583813  74.7582340  37.0407987
  97.7693558  73.6216497  38.0364037  30.2592325  73.5999346  56.8862772
  29.9519277  74.1476727  57.6086187  30.0931716  74.1227150  56.1018276
  25.7499552   4.8384634  20.8347631  25.0876999   4.4940040  21.4339232
  26.4959288   4.2474207  20.9368634  33.0079746  82.4243641  51.6997290
  33.4475923  82.6767063  52.5116968  32.9946136  81.4675236  51.7219687
 104.5143986  78.0689907  29.7190213 104.3912411  77.1999454  29.3371487
 104.0689945  78.0241346  30.5650926  14.4550538  61.6743946   8.2101321
  13.7198579  61.0794544   8.3576620  15.1823330  61.2804842   8.6919343
 111.0302734  59.7886419  35.5864716 111.0442638  60.2376986  34.7412586
 110.1820469  60.0185299  35.9658122  24.0077376  66.6959810  44.5893860
  24.6732545  66.8051672  45.2686453  23.5331750  67.5272369  44.5832109
  17.5413477  91.1592293  26.4650822  16.6781187  91.5683651  26.5257025
  17.7501667  91.1778355  25.5311227  25.3117466  59.9636126  40.8947897
  24.8112845  60.7524633  40.6862688  26.0459876  60.2782059  41.4221859
  83.3742714  25.2146387  82.6918602  83.3489895  26.1713743  82.6760578
  82.6628113  24.9659634  83.2819653 101.6693306  74.6011543  33.9486742
 100.7959366  74.4405699  34.3059325 102.1584511  73.8017225  34.1433549
  30.5714130  73.9907455  15.7141769  30.8399487  73.0802488  15.5912399
  30.8060002  74.1893291  16.6206884 106.2807178  91.7646503  14.9772406
 105.3754330  91.5724564  15.2217007 106.3298416  92.7205753  14.9729204
  98.4904480  51.6765833  26.1227798  98.2881451  51.1416721  25.3552008
  97.7078724  52.2117329  26.2547755 112.2043514  70.5235672  15.2018666
 111.3578129  70.6668139  14.7786880 112.5295067  69.7094154  14.8175943
 105.0557709  43.4379148  68.5607338 104.6114540  43.8508177  67.8202438
 105.2862835  44.1658783  69.1379404  10.0666368  66.2757540  20.9901834
   9.3622673  66.8762112  20.7461643  10.8688688  66.7802095  20.8553505
  11.9610810  90.8373356  19.5637441  12.2200692  91.2691689  18.7496948
  12.7653670  90.7998753  20.0813866  55.0243568  34.0194726  55.8166552
  55.2840710  34.7286749  56.4047098  54.5629883  34.4579577  55.1017380
  98.6883926  22.7176118  19.6326375  98.8407040  22.4613833  20.5422401
  97.8449440  22.3231673  19.4107187 101.2024117  12.8327572  61.8934631
 100.9883404  12.1014953  62.4728298 100.3532410  13.1982231  61.6452885
  21.1710858  89.9480534   6.5008855  20.6554937  89.1907120   6.7780721
  21.5786123  89.6727753   5.6796831  28.4908795  99.0048885  46.3811493
  29.0925741  98.6019135  45.7552052  29.0297174  99.1799545  47.1526623
 109.0059376  96.3295841  17.1115589 109.8768997  95.9400749  17.0345414
 108.7081909  96.0794640  17.9862118  22.3237681  91.9703674  35.7782865
  22.4353099  91.2259293  35.1870036  23.1908131  92.1041679  36.1611247
   2.8922117  79.7464991  39.6324372   2.7697551  80.6660271  39.8684597
   3.8419339  79.6337461  39.5931196   3.9897358  53.4749317   3.9470491
   3.0648214  53.2284927   3.9527190   3.9846849  54.4265509   4.0501404
  16.0817218  92.0584106  46.2017822  15.8174610  91.3341618  46.7691088
  16.8143058  92.4680901  46.6619110  34.9268579  77.5378084  35.0901628
  35.3542352  78.2028770  34.5504761  35.3010130  77.6606178  35.9626055
  57.2562265  12.1574032   8.7571794  57.9751921  12.5099790   8.2327634
  56.4684725  12.3676717   8.2557213  31.0611629  65.1580286   3.8686010
  31.7406487  64.5520878   4.1641763  31.0240984  65.0323009   2.9204181
  29.0476990  88.4120941  12.2470522  28.9781547  87.5008583  12.5317407
  28.3235717  88.5266781  11.6316342  48.8492060   5.4749280  36.7243767
  48.3749962   5.1941836  37.5070238  49.5398045   4.8211494  36.6153646
 102.2525692  90.9470177  11.3429773 103.0143452  90.4885578  11.6975701
 101.6995621  90.2520752  10.9859514   2.0368931  74.2850018   3.0295992
   2.3009795  74.9233103   3.6922103   2.0104417  74.7841692   2.2132874
  32.3060846  79.3188810  28.5666919  32.5873089  78.6884785  27.9035640
  32.6585627  80.1563835  28.2657290  10.6010520  89.9282360  16.8455410
  10.7877445  90.8434105  16.6361594   9.7255719  89.7750187  16.4901674
  58.7522697  83.4994888  19.7185397  58.9822817  82.7621460  19.1531634
  59.5507383  84.0255260  19.7628510  58.2846546  61.5663815  10.2693713
  57.3834276  61.8568897  10.1292944  58.2965088  61.2494421  11.1724985
   3.1517953  98.3697701  22.7164006   4.0509540  98.0933571  22.8934288
   3.1090987  99.2688560  23.0420756  59.1872215  18.2675195  17.2067142
  60.0406075  17.9650342  16.8961310  58.9761686  17.6827252  17.9345226
  48.7915087   8.0565876  19.2203939  48.9577198   7.9226243  20.1534867
  49.4710302   8.6704761  18.9417875  93.8661289  95.9860706  14.0984905
  93.0268383  96.2512493  13.7223256  93.6849022  95.1460838  14.5201802
  70.3218699   7.8534645   2.1681337  70.4305792   7.0713806   1.6270611
  70.8837461   7.6992917   2.9275805  22.7691174  98.0347061  17.7358687
  22.6097822  98.9391613  18.0057144  21.9206834  97.6025200  17.8338814
  91.2021351  84.9129200  23.3171773  90.3649330  84.5028877  23.5344219
  91.8179607  84.1826248  23.2566810 110.1153851  91.7417049  27.6055169
 109.8169708  91.5539074  28.4954119 110.3280735  90.8837700  27.2381616
 105.6286240 105.8386898  41.4831734 105.1449203 105.7512665  40.6618166
 105.8229733 104.9383640  41.7436695  52.8864574  35.0296068  84.7675896
  53.7204075  35.1964307  84.3283558  52.7998304  35.7455540  85.3969955
  43.8722849  20.1760244  23.3919883  43.4655094  20.6425023  22.6618052
  44.7829628  20.4707694  23.3869386  16.4174259  84.3886566  28.7714243
  15.6568789  84.9687386  28.7352681  16.5241432  84.1913509  29.7019696
  42.5624228  72.5093985   7.0835251  42.8614950  73.1271315   7.7507544
  41.7114115  72.2073650   7.4010009 111.1232281  88.4590626   1.4351943
 110.6291866  89.1516495   0.9964813 110.5101204  88.0953121   2.0739549
 107.3698997  78.3173180  30.2133012 106.4504337  78.4680367  29.9939728
 107.4674129  77.3652649  30.1955247  85.8319283  11.8031943  87.4535370
  86.5699768  11.5238702  86.9117737  85.0790215  11.7800927  86.8629265
 110.1895905  97.8522873  32.2520757 109.5374775  97.2079468  31.9767380
 110.7634258  97.9519272  31.4924622  95.2573204  53.4479523  62.8686142
  95.6147861  53.0527544  62.0734596  94.8168564  54.2415190  62.5645161
  89.7143745  36.7498136  76.4851522  89.2322636  36.1240721  75.9445477
  89.4155693  37.6074982  76.1829615  29.6340060 100.9216213  29.2425203
  28.8152933 101.1242771  29.6951509  29.3624616 100.6550312  28.3642125
  90.9677219  48.9702177  89.7167301  90.3255558  49.1861725  89.0405464
  90.9592819  48.0139637  89.7583961 107.2992229  72.4247217  79.2375326
 107.8200912  72.4831724  78.4365940 107.7372932  73.0139256  79.8516655
  38.3667493  84.6612358  30.5933785  38.2160997  85.4972649  31.0345054
  38.1410646  84.0007305  31.2483835  27.4571824  96.8493462  11.1837232
  28.2735395  96.3497925  11.1994326  26.7754745  96.1996269  11.3551211
  56.7200613  46.2724924  20.6539893  55.8056307  45.9899521  20.6688690
  56.7328739  47.0703030  21.1827350  53.9814329  55.7336569   9.9267054
  54.8061848  55.7620907   9.4417250  53.7371254  56.6524601  10.0378299
  26.9816756  91.4689541  32.5933790  26.1756802  91.2932301  33.0788922
  27.6678061  91.0405350  33.1051493 103.3870029  85.9518528  31.1275291
 103.8497257  85.6514645  30.3452897 103.1729698  85.1487732  31.6023898
  17.5121808  96.4989758  10.0351250  18.3994305  96.3121700  10.3419161
  17.5707543  97.3738384   9.6511602  35.8670878  61.0041809   3.9406967
  35.9782290  60.8931065   2.9964817  36.1543679  61.9010735   4.1118103
  17.6076210  86.3292980  66.5924168  18.2875645  86.0451508  67.2032881
  17.5982702  87.2832012  66.6712427  33.9778519  81.3005066  19.5020282
  34.9233174  81.2656593  19.6473253  33.6515546  81.8837643  20.1872873
  62.5022125  79.0502453   8.5923898  62.5681305  79.4915199   9.4392437
  62.9919434  79.6114016   7.9911429  10.8610260  77.0412970   0.3796130
  10.1897097  76.7057800   0.9737448  11.0211480  76.3221455  -0.2314605
  14.0850639  88.4437084  20.1483727  13.3759904  88.3341694  19.5147753
  14.5208311  89.2534447  19.8825419  35.8156848  96.6665840  45.0581837
  35.5891800  97.0560551  44.2136478  34.9972653  96.6780949  45.5544567
  31.3993740  71.4137888   7.7057105  30.5413675  71.1004210   7.9918194
  31.7159200  71.9454670   8.4360194  54.0247440  84.2202091  20.0935984
  54.8540688  84.4010544  19.6511734  54.0277386  84.8006916  20.8546877
  18.9381206  98.1805325  32.2010612  19.1532803  97.3895359  31.7068243
  18.4220862  97.8661537  32.9434252  22.8389430  85.1512146  41.8352222
  23.1013179  84.9513912  40.9366322  22.1655893  84.5018673  42.0381451
  73.6167955  29.1644001  11.0411739  73.5859203  29.4681144  11.9483888
  74.1937971  29.7874808  10.5995095  47.8868103  91.6825199  25.1082587
  48.1961584  90.8324337  24.7953820  48.6855507  92.1902847  25.2511382
  75.8667278  29.5287466  30.5165958  75.5985641  30.2125001  29.9027538
  76.7247105  29.2459130  30.2002120 101.0286808  88.2899570  10.6785524
 101.1597252  87.6417351   9.9865568 100.9691334  87.7735710  11.4823103
  43.4809685  78.1729031  32.1051621  42.9889011  78.7316275  32.7067637
  43.5157347  77.3222065  32.5425816  14.1335440  99.9213219  37.2421312
  13.5777402 100.4351711  36.6562319  14.3407810 100.5187130  37.9607511
  62.2909737  14.2906690  11.9652236  62.4373817  15.1805556  11.6444468
  62.9863834  13.7725604  11.5600085  36.3589716  93.2241726  38.8442373
  37.2906494  93.1864738  39.0605402  36.3235331  93.7133598  38.0222416
  43.9251137  47.2047138  23.7438846  44.7016573  47.6089954  23.3568859
  43.5397005  47.8947735  24.2838001  91.8341637  73.5543108  30.2124000
  92.6317883  73.1299782  29.8962188  91.8658543  74.4341183  29.8366833
  90.6303120  24.1608310  81.9270515  90.0984192  23.4385586  81.5929222
  91.5338421  23.8692546  81.8051815  48.4351730  14.1058409   6.9806528
  47.7080870  13.9153850   7.5733596  49.2004251  13.7228382   7.4095291
  43.8102913   3.2620525  41.4937878  44.4578934   3.2295880  42.1979094
  42.9662752   3.2067218  41.9419003  86.4934349  72.8438807  28.0257201
  86.2891293  71.9600868  28.3313227  86.0154057  73.4200382  28.6221790
 108.3275986  67.4139595  48.5553598 108.5513592  66.9460440  47.7508593
 108.3611679  66.7447329  49.2389107  65.3577185   7.0755726  46.1080694
  66.1689854   6.8627340  45.6467915  65.1066971   7.9341716  45.7674360
  70.4564190   6.9422698  36.0941529  70.8175564   6.1299509  36.4490438
  70.1141691   7.4061781  36.8582773  49.7848988  89.4299221  60.7770967
  49.7135544  88.5597515  60.3847361  50.7195187  89.5370579  60.9538555
  25.0483966  64.1178226  11.1054945  25.8891320  63.9540720  10.6781983
  25.0983047  63.6296177  11.9273210  59.2324972  83.9825153  22.6555514
  58.6945248  83.8836384  23.4410715  58.7081575  83.5934353  21.9556165
  53.7449312  88.5091114  25.0426698  53.6602736  88.8440609  24.1499901
  53.3085632  89.1646290  25.5868340 103.3423138  90.5105782  42.0361900
 102.9315567  89.7246647  42.3965359 104.2364311  90.4914188  42.3773909
  65.4966402   1.8827456   7.3095316  64.7694206   1.6655129   6.7262679
  66.2388325   2.0285572   6.7229158   0.5589557  77.7929640  68.1320143
   0.8961697  78.5267019  68.6459637   0.8043034  77.0159388  68.6342812
  26.3748193  78.3859777  32.8330326  27.2853255  78.1248140  32.9708815
  26.0750628  77.8365231  32.1088266  33.8505220 100.1232433  17.2787917
  33.2064843  99.5254135  16.8992484  33.9014339 100.8477306  16.6552913
   5.4802984  48.6696005  13.5712099   5.5154550  47.7709913  13.8990772
   5.2413011  49.1941833  14.3353581  52.7746725  48.3963156  16.7701781
  53.1884336  48.7920284  17.5372791  51.9955683  47.9609489  17.1161318
  29.9962783  58.1246471  17.3070669  29.1826606  57.7666807  16.9519317
  30.4000783  57.3895884  17.7684391  51.6643763  11.0971916  44.4299984
  51.1283398  11.0127211  43.6414814  51.0367393  11.0578907  45.1516294
  38.7089467  79.9125814   3.8620493  39.0992117  79.3381548   4.5208031
  39.4559884  80.3462029   3.4495750  39.9597502  96.1882305  10.3336453
  40.7292557  96.4002705  10.8619761  39.3160462  96.8563843  10.5691004
  89.1224766   0.7469258  29.9536800  89.4629383   0.5429830  30.8247256
  89.7322941   0.3197759  29.3521047  27.0044470  89.0516567  10.2015007
  26.8395066  88.7007904   9.3263328  27.3798609  89.9182034  10.0452995
  15.1859415  79.6922207  21.0737991  15.9237897  79.1580009  21.3677740
  14.9876511  80.2580833  21.8199277  49.0996027  75.3345585  14.7192502
  49.8172808  75.4365492  14.0941358  49.4765711  74.8234177  15.4353940
 109.0850067 102.2884083   1.1928710 108.7058258 103.0815887   1.5714443
 109.8640728 102.5936794   0.7280000  93.4616947  64.7393942  91.3304996
  92.6115704  64.9204350  91.7314148  93.2766438  64.6795797  90.3932667
  24.7395921 104.3394184  57.4510622  24.7095323 104.8983479  58.2275438
  24.7620726 104.9518871  56.7158031  69.6560192   0.9989004   1.8530591
  69.5037699   0.4052633   1.1177722  68.8453627   1.5026313   1.9260238
  38.0660534  93.2467365  15.6335068  37.6257467  93.6482048  14.8843861
  38.7727141  93.8549519  15.8501530  67.6716852  32.2318935  23.5658813
  67.6407909  32.2904444  24.5207882  68.1447172  33.0179930  23.2928967
 102.7759266  77.6168823  22.9982758 102.7510929  76.6616154  23.0537462
 103.6939144  77.8418112  23.1496859  64.4718885  10.0546503  40.1631308
  65.2400160  10.0109613  39.5936584  64.8290205  10.2279663  41.0341358
  87.5405693  59.2428017  17.6252341  88.4581280  59.3703842  17.3843288
  87.0471954  59.6549320  16.9160295 103.5793114  76.7016411  14.4853771
 103.7423134  76.1007833  13.7583041 104.0398407  76.3100624  15.2275431
  65.4882574  71.4666128  25.1600862  65.8868504  71.2609243  24.3144798
  66.0084915  72.1950102  25.4992437  64.7998667  34.1156030  32.6158309
  64.0043306  33.7260246  32.2530890  64.4904327  34.8721337  33.1139731
  38.7344384 100.5858231  24.8541784  38.5500526 101.0772896  24.0537477
  39.6876574 100.4997540  24.8681712  95.8992195  33.2651877  11.6999984
  96.0655308  33.3273578  10.7594097  95.5997849  32.3655629  11.8313313
 103.4324074  16.3724852  33.5629416 103.8835335  15.5446517  33.3973789
 102.9806232  16.2366581  34.3958139  53.5530901  16.2339866   4.0541077
  54.4532919  15.9166503   4.1259876  53.5897684  16.9064021   3.3738539
  22.1068835  74.2888784  83.1658936  21.5790224  74.6543217  83.8758564
  22.1978760  75.0078392  82.5405598 111.9841862  23.9728785   1.8496233
 111.6200829  23.2383156   2.3436639 112.3342514  24.5613313   2.5185090
  31.0262179 103.2653809  15.5034864  30.1979041 103.3176613  15.0266302
  30.8611155 103.7328339  16.3223052  96.5990448  57.7401018  89.6672726
  95.9672832  57.8762245  90.3733730  96.0632610  57.6657152  88.8775635
  59.6952438   0.6369729  38.2206869  58.9809513   0.9804481  38.7573838
  59.6004152  -0.3139188  38.2758594  35.3979230  92.5511265   3.5062853
  34.7847462  92.4231339   4.2300695  35.3510785  93.4879589   3.3155212
  87.3694420  26.2964201  49.1056156  87.3285389  25.4366231  49.5243168
  88.1652641  26.6961026  49.4565344  32.9152131  90.5403423  28.7758923
  32.1219873  90.4386520  28.2498860  33.1561160  91.4607239  28.6705184
  36.4628768  78.2857227  27.6951480  36.6539097  79.1777468  27.9850245
  35.7539511  77.9942274  28.2684565  62.1303225  89.5325279  19.3767846
  62.6767206  89.8075008  20.1130390  62.3514748  90.1428413  18.6733365
  65.0318384   1.1653144  41.7429352  65.7389975   0.6381012  41.3711834
  65.4599667   1.9717199  42.0304155  39.3438721 102.5910568  18.6578727
  38.4871578 102.7991867  19.0306354  39.3533063 103.0412102  17.8131831
  66.2944508   4.6035877  16.3876390  65.4110718   4.7345680  16.7321920
  66.2845659   3.7136886  16.0351992 108.3479214  54.6736526  68.9944696
 108.1050491  55.2794695  68.2943058 109.2569733  54.8942375  69.1974401
  99.4843483  13.4148872  80.1856709  98.7249374  12.9351878  79.8549080
  99.1230106  14.0151715  80.8378410  10.0577354  69.8411274  35.4996181
  10.3772974  70.4211855  36.1907363   9.3464231  70.3303528  35.0861859
  39.3318796  22.7654266  31.9300175  38.4260750  22.9572654  32.1728063
  39.3409300  22.8223062  30.9745526  11.0271304 105.6607401  84.0787411
  11.5102999 104.8463283  83.9390659  10.5577462 105.8047025  83.2570457
  91.8166637   9.0110284  40.3636074  91.4302731   9.2131877  41.2157011
  92.7529335   9.1718507  40.4809523  61.4277124  82.8971577  23.9042997
  61.3693047  82.0752048  23.4172630  60.6208849  83.3632565  23.6851788
 103.8839340  64.2704868  85.4954529 104.4427013  63.5427141  85.2227592
 104.2408562  64.5427799  86.3408470  81.7080870  32.0004766   0.3530296
  81.2540874  32.7083890   0.8101734  81.6793933  32.2539918  -0.5695453
  41.3917542 102.3223495  36.3862109  40.4647541 102.0884418  36.4330149
  41.3927603 103.2596207  36.1918879  98.1769657  12.6778936  15.1995146
  97.4317837  12.6347351  14.6002841  98.2468128  13.6046743  15.4284894
  54.9236584  25.1051044  83.9808083  54.7021914  24.5765996  84.7475338
  55.6894350  24.6715713  83.6041546   0.1630795  86.3457584  73.3791494
  -0.3892085  86.6907120  74.0807343   0.8909865  86.9646358  73.3210945
  32.5061321 104.7778034  43.4302139  32.7885437 104.6789455  44.3394470
  33.2760453 105.1203060  42.9761696 108.1535625  34.8735571  75.4021978
 108.6340904  35.3276730  76.0943699 107.8886604  35.5681348  74.7991848
   8.3721781  95.2277756  59.1504192   9.1869903  95.2503014  58.6486197
   7.9047233  94.4632530  58.8139343  71.4959431  46.8122959  30.3685546
  72.2064257  47.4451828  30.4729390  71.1373949  46.9957733  29.5002174
 111.1598587  84.7613335   4.7316402 112.0038033  85.0528526   4.3866625
 110.7944298  84.2120647   4.0380999  86.0677910  18.2326591  32.1837711
  86.3659573  17.8191519  31.3736224  85.9577179  19.1556168  31.9551587
  51.1441040  88.8787746  18.9006722  50.4454088  88.3440399  18.5236883
  51.0936689  89.7082710  18.4256780  51.1468554  14.9942303   9.9677920
  51.5968227  14.2118096   9.6490800  50.2513838  14.7025514  10.1389337
  73.4109926   8.3629537  40.4430389  73.3921480   7.4182069  40.5957842
  73.2000542   8.4596896  39.5143938 103.2496548  47.4952269  90.9285641
 103.6805534  48.0934429  90.3180790 103.4880638  46.6221666  90.6168652
  26.3283753  92.6755524   6.1441088  25.6536865  93.3512592   6.2107879
  25.8606768  91.8542957   6.2958455  39.2180705  14.9435759  62.7263308
  39.6737862  15.7839060  62.7753210  38.2891512  15.1745331  62.7259684
  55.3690624  12.4048615  47.3524570  55.9291172  12.4314225  48.1282568
  54.8426628  13.2022738  47.4096537  77.6734018  33.4116864   1.7725176
  76.9398117  33.7238121   1.2427501  77.2831345  33.1986499   2.6201832
  86.7351151  20.5069876  87.7398205  87.2647667  20.1300740  87.0372295
  87.3732471  20.7963490  88.3919621  76.1476946  82.5175762  42.7777243
  76.8682480  81.9427586  43.0358362  76.4643431  82.9596233  41.9899654
  81.0391331   2.6351437  27.8441191  81.3493824   2.2053033  27.0471144
  80.0984383   2.7457547  27.7059340  68.4719229  92.1926785  33.5929203
  67.8816080  92.6431942  32.9889417  68.9687157  91.5911770  33.0382752
  37.4853277  75.3855896  10.5539191  38.3286476  75.6075716  10.1592481
  37.0558333  74.8292112   9.9041420  35.4069710  98.4665585  10.2090132
  35.0850797  97.5770283  10.3550887  34.7185850  98.8890362   9.6953267
  88.9184284  35.5946684  87.1504498  88.8439655  35.1848030  86.2886524
  88.7183762  34.8914099  87.7682209  75.1434183  38.7833714   6.3589007
  76.0474348  38.6216331   6.0890311  75.1194620  38.5281444   7.2811359
  28.0279016 103.1132221  15.3389037  27.6917458 102.2429371  15.5529952
  27.7572513 103.2581615  14.4322765  12.7746105  34.9820566  73.3681059
  12.6315546  35.5603266  72.6188564  13.2324147  35.5275559  74.0076971
  72.6978731  11.9393325  12.8846967  73.5961437  11.7243314  13.1359220
  72.1585512  11.3065016  13.3589220   8.3605015  39.9872327  65.2406168
   8.8036638  39.3540812  65.8053780   9.0297419  40.6429291  65.0446272
  75.3451204  15.1843548   4.3741918  75.0832939  14.2640257   4.3482563
  74.8179197  15.5636322   5.0773543  14.3261743  99.3764973  25.1140976
  13.9854825  98.7818050  25.7823062  14.5529282 100.1724529  25.5949998
  65.8632088   5.6788731  31.5160108  65.9324837   6.5994954  31.2632537
  66.3091898   5.2037823  30.8148527  80.5464363  13.0959690  68.4923601
  80.9463882  12.4905944  67.8680325  80.1148415  13.7528968  67.9460955
  99.7233677  55.0010395  12.6502371 100.6734562  54.9494886  12.5457656
  99.5864677  55.0053596  13.5975862 102.5539112  54.2120028  16.7100370
 103.2449627  54.6994257  17.1584892 103.0181026  53.6722994  16.0701275
  45.0687933  48.1097031   6.2326360  44.8469782  47.7690744   5.3660315
  45.1989746  47.3288774   6.7707765  94.3118668   6.5620703  62.0245790
  94.3427753   6.2713438  62.9360342  94.8154449   7.3760504  62.0156050
   7.6180303  34.9504495   8.2198071   8.4131640  34.8949361   8.7498188
   7.1253484  35.6764674   8.6024207  47.3463583 103.9585781  84.1260910
  47.8002596 104.7917271  84.2528915  46.9353533 104.0383339  83.2653141
  50.6293964  59.2013645  13.3568597  50.6603622  59.7104120  14.1668880
  51.5472698  59.0871954  13.1104875   9.4169849  50.1324224  20.8581710
   9.5982158  50.0299644  19.9238861   8.5739440  50.5846071  20.8904386
   7.0794660  32.5737977  46.8678379   8.0141902  32.3833895  46.7886686
   6.9500101  33.3617806  46.3400507  61.6816807   1.9781391  80.5620193
  61.1670399   1.7804359  79.7795343  61.3597250   2.8319836  80.8510303
   3.8977814  72.1777821  27.7263665   3.5789907  73.0780506  27.7906084
   3.1134769  71.6382551  27.8264141  32.2905207   8.2202083  40.4018927
  32.8287792   8.9742655  40.6425381  31.5139008   8.2935065  40.9566212
  93.2434750  14.8402560  74.0543795  93.4333611  15.3802145  74.8215961
  93.9440346  15.0478983  73.4360409   5.3061032  51.6843319   5.3933525
   4.7625005  52.1973324   4.7953942   4.7084406  51.0338688   5.7620454
  94.8187733  26.2363863  11.7518258  94.0982437  26.4713216  12.3365259
  95.1163960  27.0714974  11.3909352  14.5340014  45.3834581  16.7781520
  15.3585029  45.6619120  16.3795400  14.7838914  44.6832132  17.3810196
 107.4658298  41.5673161   9.0204567 108.2580853  41.0326433   9.0723109
 107.7152634  42.3127460   8.4742498  22.6879239  60.5838871  18.0925238
  23.2348204  59.8828411  18.4470248  23.2864380  61.3229704  17.9840422
   9.9959165  18.3011508  21.7711830  10.1410306  18.9879119  22.4219775
  10.2504718  17.4924552  22.2155333   4.9395972  50.4752207   2.1925454
   5.7534897  50.8702850   2.5051737   5.0199246  50.4841805   1.2387639
  74.1941881  30.0692296  91.6071892  74.6127272  29.9782729  92.4632168
  74.0214872  31.0069895  91.5234470  54.3735838  83.5433483  67.3276997
  54.2845774  84.4186115  66.9505930  55.2944136  83.4847927  67.5824022
  67.1123552   1.4078234  77.0711327  66.5778446   1.2845708  77.8555679
  68.0017185   1.1909167  77.3508024  61.2377453   2.3060243  36.6230607
  60.8040953   1.8657333  37.3540354  61.6189432   1.5953185  36.1074853
  10.2931786  42.8423119   2.5590706   9.8012912  43.5825777   2.2037043
  11.1561382  42.9098654   2.1504515  85.4679775  93.1763649  20.2098560
  85.1613426  93.8751030  20.7877660  84.6792889  92.8753281  19.7586584
  80.8560467  78.2865334  18.8432860  81.3442421  77.5234270  18.5341501
  79.9921036  78.1972408  18.4409642 103.0198097  54.9843884  22.4699402
 102.8027344  54.7783136  21.5607405 103.5081959  55.8060598  22.4192572
 109.7581291  12.4534345  79.9721766 109.9591923  12.9613328  80.7582092
 110.4721355  12.6552725  79.3674564  36.9916677  92.8324318  83.7444305
  37.4348021  92.1682072  83.2165432  36.5007710  93.3544540  83.1098175
  22.8453541  50.4838181  33.8722491  22.0388389  50.2460575  34.3296719
  22.8344131  49.9529505  33.0758238  76.9926023   9.3002385  57.8523540
  76.5015650  10.0768459  58.1206751  76.3215351   8.6765271  57.5750732
  30.5003190  73.8677502  75.3291988  30.2240062  74.5319557  74.6977615
  30.2061987  74.2047453  76.1754608  98.3474064  32.5493240  29.5786524
  97.6992893  31.8526459  29.6826553  98.3105469  32.7738905  28.6488986
 102.6292706  49.3274212  41.3785648 102.6705265  49.1567087  40.4376125
 103.2636070  50.0296211  41.5226269   5.1387316  42.7410507  14.2994082
   4.8507681  43.6256695  14.5247030   5.7984912  42.5285292  14.9595475
 103.3557510  73.3699322   3.2500574 102.4483109  73.2494020   2.9702893
 103.4913731  74.3170500   3.2215953  23.0091691  42.3078728   2.7986324
  23.3849168  42.0724154   3.6469284  22.5272822  43.1176949   2.9665977
  16.8339455  71.5258217   0.3637917  17.2870564  71.2193680   1.1492909
  16.9854820  72.4708939   0.3532203  73.3476496   2.7778327  87.4677467
  74.0627813   2.1468025  87.3863602  72.8121281   2.6349118  86.6873455
 106.3748455  14.4211686  84.7182083 106.2318230  13.7151468  85.3485394
 106.9077587  15.0602734  85.1912689  15.9566557  60.6728649  15.1220965
  15.9167540  60.5637884  14.1719687  16.2039685  59.8090792  15.4521668
  30.1432204  47.9039907  17.1699488  31.0635805  48.1650734  17.2016668
  30.1664567  46.9475222  17.1406817   0.2922120  58.3074808  11.0881066
  -0.0989024  59.1790390  11.1485076   0.7937980  58.3260059  10.2730608
 108.3079910   8.5461891  79.2076063 108.1743050   8.5424626  78.2597971
 107.5018311   8.1735593  79.5646620  17.1770787  51.0284996  15.0263524
  17.6217031  50.6433105  14.2712569  17.7978611  51.6725969  15.3669381
  41.9076014  51.4008760   6.1388403  41.7400026  52.3293972   5.9776139
  41.2542963  50.9440422   5.6090015  77.6640797  27.1433711  80.0324440
  78.5322285  27.1350574  80.4355431  77.2367334  26.3552499  80.3678131
  27.7734160  59.5472097  28.0926347  27.6021266  60.2845240  27.5067472
  27.0340872  59.5476151  28.7005997  37.8671122  59.0517521  13.7344408
  37.8192234  59.9634075  13.4466481  38.2912326  58.5935211  13.0089211
  77.0366716  29.2428756   0.7487431  76.5920877  29.5130038   1.5522389
  77.6269484  29.9686265   0.5460304  43.3899593  44.7159338  11.4620852
  43.4600687  45.1544952  10.6141579  42.5689363  44.2264605  11.4114189
  69.7733641  11.7658556  87.0136738  68.9634705  12.2413468  87.1986389
  69.5355844  10.8431685  87.1049976  17.3877168  61.0124207   6.7843390
  17.3045576  61.2540197   5.8618712  16.5467858  60.6111813   7.0035928
  72.3245001  65.9251165  57.0454884  71.6220379  66.5656996  57.1569967
  73.0912495  66.3390732  57.4416733  90.1726341   2.7954769  78.0876160
  90.2834606   2.1394929  78.7758255  91.0506916   3.1519943  77.9529142
  67.4338341 100.6933498  82.8864574  67.4824333  99.9375248  83.4717751
  67.6682997 101.4393044  83.4385586  22.4100733  55.6929207  10.1367640
  21.4700079  55.6646967  10.3148341  22.5731945  56.5924263   9.8530102
 102.6623058  28.5756135  60.6803751 103.5840225  28.5127473  60.9308243
 102.1970272  28.6975336  61.5079451  38.9020419  96.2782097  56.2541723
  38.1631851  96.6760254  55.7936716  39.3258047  97.0093441  56.7037296
   8.1239420  84.7111320  10.9440637   7.9985213  84.1792583  11.7299426
   8.0791014  84.0850163  10.2214301 105.9334469  93.8060665  17.9101956
 106.6974449  94.3105125  18.1896305 105.8977032  93.9310551  16.9618642
  12.5893235  94.7994232  70.2472210  11.7225552  94.7664833  70.6520176
  12.5015974  94.2762470  69.4504595  94.1960716  13.2266617  55.0811625
  94.3845081  13.9741874  54.5137739  94.2415237  12.4674189  54.5000267
  93.7039757  20.2799225  65.3405666  93.0373192  20.8546853  64.9644661
  93.5820580  19.4444978  64.8895311  28.8630390  35.1767230  33.1382871
  28.5947061  35.7312942  33.8708711  28.7512779  34.2826128  33.4612513
   3.9156920  13.6148942  69.8113775   3.8950810  14.0730500  70.6515551
   4.7940975  13.2373071  69.7659588  39.6887398  76.1583424  20.5695295
  39.3901443  75.3604889  20.1330614  38.8838029  76.5918016  20.8531117
  30.1383138  77.7374268  37.0163035  31.0184336  78.0381632  37.2425294
  30.2133155  76.7839146  36.9786477  90.4183102  92.9573536  65.7272768
  89.9087524  93.1871128  64.9502373  90.4721642  93.7715149  66.2277460
 103.1042004  32.5357294   1.7383640 103.9774418  32.9119658   1.8484311
 103.2389641  31.5911651   1.8149669  52.8943014  74.3725109  19.5722723
  53.3239937  75.1728916  19.8739064  52.4084091  74.0593958  20.3352284
  85.1510143  30.6861091  87.2136497  85.1239681  29.8798513  87.7288628
  84.2377377  30.8514643  86.9794941 108.3660507 101.5067959  77.9344940
 107.7902317 100.7674694  77.7394009 109.0889263 101.1229134  78.4307909
  20.7851386  37.9559588   2.5999877  21.4154434  37.9152846   1.8807569
  20.4403734  38.8482714   2.5661469  24.6097374  36.8236327   7.6645392
  25.5170918  36.5195107   7.6433629  24.6309543  37.6716566   7.2211027
  23.2199717  55.8405256  24.9153733  23.2370353  55.0240660  25.4147077
  23.9360714  56.3599014  25.2809978  21.8665814  70.8362198  43.2819891
  22.1209717  71.7573643  43.2271481  21.3154578  70.6937170  42.5124550
  37.3970866  73.5153532  22.4419808  38.1889558  73.7108469  22.9429340
  36.7692709  74.1840172  22.7157903  14.0331471  80.8317947  23.7409329
  13.8324857  81.7510509  23.9168000  14.6504593  80.5853748  24.4297266
   5.6533891  58.4692192  10.2501345   5.5152005  57.6233959   9.8238415
   5.5665797  58.2832432  11.1850727  30.9348655  82.8954792  24.8262262
  30.4198432  82.0917702  24.7552800  30.4976678  83.4003639  25.5119252
  36.6635656  37.0627594   2.8928453  35.8146572  37.4678421   3.0703023
  37.1616817  37.7407026   2.4362242  14.4251120  64.4751024  42.1053791
  15.2039146  64.6135664  42.6443815  14.5461667  65.0575686  41.3555002
  39.4507647  55.7010698  47.9595089  40.0787878  55.2090549  48.4884167
  39.8513699  56.5638542  47.8529692  14.8886621  23.6238837   7.3103368
  14.4164360  24.3807864   7.6572275  14.5413697  22.8792572   7.8014064
  45.4087353  58.5277414  12.6953924  44.6951437  58.3469009  12.0835805
  46.2049580  58.3840466  12.1839106  13.2095134  48.6252928  18.8061547
  13.4791911  47.8950405  18.2491684  13.1146359  48.2398558  19.6771693
 112.8320408  10.2900171  87.3941612 111.9173717  10.1432407  87.1532059
 112.8096485  10.4399931  88.3392715  29.1060305  81.1822033  15.4801691
  29.7718000  81.8606091  15.3672302  29.4845915  80.4045010  15.0701773
  91.3762474  23.0506778  67.5575590  90.4399967  22.9365802  67.3942947
  91.4533710  23.0620050  68.5115814   9.5920837  67.6901150  10.9997773
   8.7384605  68.0853319  11.1768711   9.7745663  67.1573448  11.7737830
   7.3793972  79.2013741   8.1145579   6.4490664  79.4035482   8.0153471
   7.6460415  79.6796608   8.8996530  98.7858200  25.3597140  70.6128216
  97.9098129  24.9999166  70.4735756  98.9130020  25.9687638  69.8854208
  99.1266060  57.5493956   8.6387891  98.1976032  57.3855114   8.8010418
  99.4620991  57.8738976   9.4744766 102.3429966  48.9696980  64.1148567
 102.6202583  49.5504713  64.8234177 103.1212711  48.4505892  63.9122486
  80.8782864   3.0910596  84.1198444  81.7655182   3.1703609  84.4702053
  80.9754944   2.5383228  83.3444309  11.4234209  16.1378539  90.9829426
  10.9233296  16.9067025  90.7090569  10.7683790  15.4457486  91.0731888
  26.9186950  31.9522738   3.1950659  27.8500032  32.0944643   3.0257103
  26.5894890  31.5430212   2.3948358  78.4773636 102.8021717  82.1872711
  78.9288092 102.9565048  83.0170918  78.2789326 101.8657875  82.1930885
 104.0634537  27.9016471  84.3349266 104.7132874  27.2020340  84.4019699
 103.2244015  27.4445248  84.2778587  96.3032246  82.5867081  32.1804976
  95.5383682  82.6309681  32.7543163  96.7421341  83.4287643  32.3010349
  99.2476273  36.4464998  81.5210629  98.6895370  37.1487212  81.1869144
  99.8865128  36.2962222  80.8242989 104.5061874  45.7623816  35.5539823
 105.2227592  46.3955832  35.5965853 104.2581654  45.6195402  36.4673877
  97.4024487  16.8848217  77.2177362  98.1009197  16.8887031  77.8722286
  96.5975857  16.7893076  77.7269554 111.6936375  93.5302353  29.3815041
 111.9620088  94.2416763  28.8000774 111.3878226  92.8412437  28.7915921
  86.5444279  28.1291699  81.2213039  87.2357655  28.3388257  81.8492508
  86.4251041  28.9349246  80.7185555  64.7663967 105.8177437  88.0084801
  64.1427891 105.0919716  87.9838657  65.0607483 105.8498380  88.9187336
  19.6211493  39.8256016  63.3393049  20.3134584  40.4838562  63.2789755
  18.8369215  40.2729750  63.0213833  28.2162738  94.4139004   5.8512372
  27.6383042  93.6573029   5.9499753  27.8427196  94.9069500   5.1207620
  22.2732973  26.1344695  10.9522283  22.4954128  26.3175464  11.8651235
  21.3551307  25.8651924  10.9784925  14.5565975  51.2905788  21.3418698
  15.1797378  51.8834734  20.9218693  15.0337195  50.4655647  21.4309835
  12.9268742  57.8292179  16.9352114  12.1704984  58.3181381  17.2593760
  12.5884008  56.9504595  16.7635977  20.4060674  67.9577446  89.3097210
  20.8670139  68.7845135  89.1675568  19.5255578  68.1125450  88.9677143
   4.3617797  95.7260418   9.2616647   3.7633371  95.4081154   8.5856307
   4.9869159  96.2755775   8.7889677  14.9397707  70.8204460  23.7516236
  15.7821977  71.0833740  24.1223216  14.7361135  69.9911880  24.1841602
  99.4794178  15.8728123  53.3463812  98.7391567  15.3369510  53.0616045
 100.0107288  15.9855342  52.5581980 100.8014965  56.6909599  89.3994808
 101.1113834  57.5810575  89.5665932  99.9514008  56.8089342  88.9756203
 108.8420200  44.5190954  88.2722950 109.1948223  43.8423777  87.6945305
 109.2113590  44.3165874  89.1318321  19.1877019  62.4239874  35.4681373
  19.3113375  63.3211756  35.7779670  19.5303476  62.4298763  34.5743871
  95.3611946  82.5733280  19.8561275  95.2022934  82.0405006  20.6352758
  94.4925022  82.7097130  19.4779789   0.3159470  42.7470398  26.7876005
  -0.5728500  42.7367163  27.1427989   0.8228911  42.2082424  27.3950052
   3.3525589  32.8726435  19.4754899   2.7691540  32.3059130  19.9801564
   4.1835117  32.3982477  19.4490707  25.4849792  94.6646976  34.7207975
  25.0457788  94.3577671  33.9276242  25.8952785  95.4902458  34.4631863
  12.1186781  60.9583569  31.0569000  11.3814735  60.3949118  30.8217597
  12.8938127  60.4272366  30.8743882  40.0540495 105.4386044  74.1928577
  39.1296387 105.2066231  74.1040945  40.4961157 104.9235725  73.5179186
  94.0742111  69.9814463  19.9857283  94.8617744  69.5187092  19.6996224
  93.8282871  70.5223370  19.2352700  82.6057243  25.7035804  77.2434664
  81.9890308  26.4287686  77.3435879  83.1812954  25.9755898  76.5286493
  26.6110492  89.7885418   3.5651267  27.5042605  90.1001072   3.7111717
  26.6953421  88.8366127   3.5106191 102.7603912  14.8571575  87.8722477
 102.9547501  15.4136503  87.1180820 101.9457817  15.2120674  88.2281876
  60.4390144  87.3411369  11.4254868  59.9975777  86.5947247  11.8307424
  61.2892294  86.9968987  11.1518598 104.8390007  15.5238962  74.9505997
 104.6340275  15.6639695  75.8750439 104.4972038  14.6505392  74.7591448
  39.3228292  47.3831463  12.5955379  39.6390271  48.0317545  13.2244718
  40.0317955  46.7428970  12.5348580  33.0789661  94.8000240  35.1587176
  32.8259206  93.9175701  35.4297948  33.2043815  94.7330761  34.2121339
  51.7690229  80.7254696  10.2969706  51.8527842  80.3396702   9.4249761
  52.1176767  81.6117573  10.2012563  54.8880959  17.9792142  31.5482974
  54.9383307  17.0313263  31.6716504  55.7190847  18.2111657  31.1337090
  65.0176382  65.7737589  11.8142223  64.8047304  66.7057943  11.8612170
  64.1674185  65.3342438  11.8007648 104.7084236  75.4069090  28.3909631
 105.4880238  75.2710390  27.8524446 104.0556812  75.7554770  27.7837873
  19.4562399  62.8898621   7.3710608  19.3496776  62.8809690   8.3222687
  18.6801720  62.4386358   7.0388794  36.8296218  63.8488102   2.5106430
  36.6589689  64.7789001   2.3621680  36.5920877  63.7049627   3.4266761
 108.5323524  41.4631462  62.8097677 107.8354073  40.9679699  63.2402277
 109.2131901  41.5480995  63.4772110  44.6315956  37.2739005   6.3417065
  44.0852261  36.4897799   6.2881267  44.8493385  37.3510861   7.2706103
 107.7501678  40.3634453  17.9243374 107.2622585  40.8745527  18.5700476
 108.6665154  40.4641008  18.1820250  41.1167336  42.1944380   8.5705113
  41.4775085  41.4237070   9.0087473  40.2845049  42.3552084   9.0152377
  46.4169836  74.9939775  14.4850719  47.3546314  75.1759052  14.5479822
  45.9964323  75.7836866  14.8252654 106.9637299  43.2613802  81.8109894
 106.5160561  43.5332966  81.0098171 106.3847542  42.6045322  82.1977329
  80.6219101  65.9530878  83.5851955  81.2404728  66.5747738  83.9687443
  80.1199341  65.6238127  84.3307304 109.0059662  18.6890101  87.9154968
 109.3167305  18.5478163  88.8097668 108.7723923  19.6168303  87.8867912
  62.3257732   3.8024950   2.2579378  61.7705822   4.0581730   1.5213081
  63.1801367   3.6261010   1.8640140  33.2805514  98.0319023  14.7332442
  32.4242711  98.3796310  14.4840431  33.9085555  98.5928535  14.2780817
 109.3256187  26.6988111  74.0942669 109.3531704  25.9661841  74.7096777
 110.1660824  26.6599464  73.6378241   0.4931337  26.6082859  12.3956859
   1.1223585  26.2567115  11.7658377  -0.0079840  25.8456874  12.6847315
  14.9981916  96.6135216  20.9346342  14.2070150  96.0876751  21.0519314
  15.6468785  96.2006664  21.5047121 109.8030472  66.5083313  36.4490962
 110.6142330  66.4879942  36.9568419 109.9321747  65.8514214  35.7649708
  98.5292149  60.4461384  28.5328388  97.7115059  60.2354765  28.9836216
  99.0760612  59.6698332  28.6534381   4.7980919   8.5838401  86.5166759
   4.3558285   7.7351302  86.4985943   4.8194027   8.8623655  85.6011391
  27.3369193  60.9206152  25.2550793  27.6708126  61.1934471  24.4004965
  27.4252391  61.6982841  25.8061361   9.0242004  77.5809717  18.1161451
   8.7065154  77.1366119  18.9021814   9.8422402  77.9959583  18.3896959
  26.2703180  68.0949688   8.3884919  25.3329277  68.1259871   8.1972659
  26.6129565  68.9185858   8.0413705   8.6479455  24.1443062  90.7393074
   9.3720806  24.2321348  90.1195145   8.5171521  25.0285578  91.0816956
   0.1827986   8.1313831  63.5895300   0.2024061   8.4173644  64.5027971
   0.1308805   8.9433759  63.0853415  29.7928238  30.7172203   6.0496700
  30.0170708  30.2194309   5.2634436  28.8409734  30.6421328   6.1173201
  18.6003983  70.4154587   2.6279119  19.5200276  70.5283070   2.3875417
  18.6181641  70.2450228   3.5696489 108.2102966  93.2306385  38.7650371
 107.6039600  93.6735344  39.3587017 107.6982403  93.0760098  37.9712343
  11.9658577  89.9755383  26.1397815  12.8026402  90.4007912  26.3273716
  12.2052550  89.1574955  25.7042146   1.7945702  10.8965623  78.5231686
   1.7551573  10.7751203  77.5745201   1.2720281  10.1776326  78.8785839
  43.7840176  11.7744124  29.3363047  43.3795118  11.1021960  29.8846984
  44.0861940  11.3011956  28.5610723  96.7787170  37.0457029  78.0411530
  96.9173813  37.6786065  77.3365736  95.8485699  36.8264556  77.9865360
  10.9634054  55.1557636  82.7785397  10.5916619  55.3877544  83.6295414
  11.4332235  54.3370914  82.9375362  23.8313150  13.5421658  83.1388760
  23.6044550  12.7567375  82.6410198  24.6597457  13.8353157  82.7594090
 101.9376850  25.3175044  78.9210033 101.3956451  26.0222507  79.2756319
 102.2235680  25.6418180  78.0669975  47.2964907  97.2339153   7.8844917
  47.9294205  97.8746128   7.5602412  46.4502859  97.5536537   7.5715470
  84.2054081  25.4898047  71.7071676  83.3358097  25.6669593  71.3485003
  84.8094273  25.8736300  71.0714960  96.6454887  17.5295711  69.5250225
  97.3409843  16.8922186  69.3628693  96.3712311  17.3606741  70.4264069
  88.0978966   8.2467514  20.0487566  87.5148869   9.0054965  20.0738335
  87.7260399   7.6812303  19.3718970  97.1471786  53.8050461  81.7257786
  97.1498775  53.4444523  80.8390999  96.2764931  53.5985708  82.0656490
  48.8193130  47.5082541   2.2180021  48.6817789  48.3511114   2.6503253
  47.9622078  47.0829153   2.2442728  40.5485487   8.5078436  30.0361156
  39.8068070   9.0258390  29.7234941  40.4243755   8.4595096  30.9839964
   1.4608063  16.7884815  77.8917313   1.5709749  16.9559133  78.8277149
   1.4622901  17.6578093  77.4911070 109.4870186  37.6911521  87.5081921
 110.2642632  38.1192207  87.8672028 109.1962814  37.1006227  88.2031631
  24.0129352  10.4622173  89.3217087  24.8424649  10.1072884  89.6413040
  23.4146094  10.3782570  90.0641346  89.2006207  25.5116940  84.7031116
  89.5368671  26.3936234  84.5438194  89.3623447  25.0422764  83.8847351
 105.8372498  20.4551268  84.8312569 105.4930878  19.5704317  84.9541187
 106.5116310  20.3585410  84.1588688  23.3860755  45.2996445  91.0115337
  23.7319684  45.8941412  91.6772366  23.1541109  45.8698034  90.2785015
  40.9732246  43.8562632  11.4790559  40.1743317  43.8469934  10.9518826
  40.9166908  43.0642128  12.0135534  23.2605886  90.4582977  65.0634956
  23.5847378  90.0940228  64.2398071  22.3171830  90.5499744  64.9300241
  21.7067480  75.0288296   0.2684759  22.3253894  75.3668547  -0.3790228
  22.2025704  74.3672705   0.7509020   2.8285950  42.7741480  19.4540405
   2.5448489  42.0756102  20.0437546   2.1822907  43.4692907  19.5777237
  70.8935213   8.4558994  82.1231556  70.7165480   7.9261136  81.3458252
  70.8937263   9.3580389  81.8031883  28.2888961  50.3458071  23.8149118
  28.7277198  49.9001455  24.5395160  28.5908127  51.2522745  23.8731909
  98.8426113  54.1604948  91.7118359  98.2716656  53.4289265  91.4771748
  98.9254189  54.6681881  90.9046078  24.7591615  69.2423248  36.8550253
  25.6977248  69.4203091  36.9154549  24.5531535  68.7672472  37.6600671
   4.3688330  71.1438799  25.1354909   3.8138443  71.8470144  24.7981238
   4.3018034  71.2215376  26.0871792  39.9583697  81.4694309  27.5148606
  39.8754978  81.7222023  26.5953684  40.6661654  80.8250713  27.5232649
  24.5648932 101.6811657  16.7506576  25.2209330 102.1368790  17.2780812
  24.3356633 100.9092045  17.2681046  93.8308907  11.2955129  26.9496036
  94.5736885  11.8546164  27.1773672  93.5124397  11.6472113  26.1182594
  21.4264989  95.0638485  18.8251257  22.2682571  94.9659634  18.3800495
  21.0847497  95.9005356  18.5098696  22.6159310  99.6503448   5.8352065
  22.5554872  99.8384190   4.8986134  21.7536831  99.8798752   6.1817247
  94.8375225  32.3540974  87.1609211  94.1980076  32.5851250  87.8346348
  94.5054436  32.7670646  86.3637924  13.7812603  88.7569618   7.5669700
  13.4642076  87.8546429   7.5276464  14.2616940  88.8779163   6.7479563
  83.4144115  28.9902616  79.2343235  83.4090137  28.1700039  79.7276592
  84.3407822  29.1620517  79.0653658 110.2840424  36.2173462  81.0624027
 110.1925564  36.9628859  81.6557312 110.0510883  36.5660286  80.2019501
  29.1288948  74.3869972  88.5227871  30.0156474  74.4748354  88.8723373
  28.5585928  74.6237659  89.2541790  81.2632942 105.1011086  87.6287079
  81.7917061 105.8991718  87.6182556  81.7451763 104.4875240  87.0741367
 105.3155518  12.7000952  76.5653133 105.6822109  11.9416761  76.1107826
 104.5398140  12.9330575  76.0552168  83.0650806  20.0237799  78.8032103
  82.3168182  19.4465578  78.9553499  82.9668331  20.7196188  79.4531250
   9.9198699  61.5415287  15.6321144  10.0983143  62.4817324  15.6523144
   9.2182142  61.4446878  14.9882734  52.0600843 101.6123962   9.0873969
  51.6055727 100.9939957   9.6594399  52.1096897 102.4199009   9.5989752
  53.2815695  89.3163872  14.3037522  53.7447023  89.3328667  13.4662139
  52.3572683  89.3956661  14.0679348  28.1735182  96.3826370  18.1338060
  27.2329402  96.5602398  18.1329083  28.4720492  96.6771317  18.9942622
   9.3317032  28.8062143  89.0300560   9.5088065  28.4458256  88.1611538
  10.1514828  29.2291903  89.2855644  79.4641733   2.6667774  16.9784665
  79.7104168   2.9486373  17.8594625  79.1029692   3.4523734  16.5678573
 112.1763229  54.3832922   5.1926643 112.4411488  53.5806608   4.7433445
 111.2358761  54.2780638   5.3365934  71.6745663  90.2720451   9.4001383
  71.9358301  90.8366871   8.6727107  71.0166359  89.6868515   9.0247619
  33.2114172  57.8067446  14.0991557  32.5146103  57.1513891  14.0645540
  34.0174174  57.3063040  13.9720404  73.2706594  41.0591936  91.4507198
  73.3983517  41.3820982  90.5587292  72.3207760  41.0502672  91.5685368
  89.1289234  44.3258238  67.2509003  89.9190140  43.7890959  67.3134422
  89.2319298  44.9846172  67.9376411   6.5152311  87.0634270  16.5047991
   7.2221655  86.7686462  17.0788920   6.1048901  86.2556553  16.1959887
  71.5283680  81.9822693  23.3216977  71.9129086  81.4020157  23.9787102
  71.8622065  82.8511906  23.5447717  32.9046059  35.8456874  73.5118246
  31.9641399  35.6679702  73.4986877  33.3119226  34.9903584  73.3749485
  88.5381317   3.0604970  54.7950697  88.0299377   3.2801104  55.5759239
  89.1220093   2.3572490  55.0792551  91.8349361  11.7634368  28.5212374
  92.5528049  11.5171516  27.9379392  91.0535717  11.7227793  27.9698229
  14.3923378  99.4543552  11.8817508  14.0620553  99.3151569  10.9941876
  15.0981307  98.8149166  11.9776976  62.5895739  67.9109430  21.4481378
  62.2365952  67.0237494  21.5154052  61.8481159  68.4423685  21.1582065
  72.2338820  81.7871571   4.3229631  71.4891863  81.2667561   4.6243685
  72.2646570  82.5316525   4.9238053 106.2721348  64.4135380  81.4478302
 105.7360649  63.6239576  81.3742161 105.7109642  65.1155901  81.1185265
  61.3132811  69.1837358  12.3552835  60.9647751  68.2973194  12.2601950
  61.5316105  69.2568684  13.2843781  42.5774193  63.4019423  14.0380657
  43.3537006  62.8646755  14.1960669  42.9252958  64.2620182  13.8025165
  26.4943194  20.0512290  80.7299232  25.7171988  20.5975604  80.8475685
  26.2693524  19.2211187  81.1500931  42.1666336   2.6483062  34.9630356
  42.4292994   3.4222165  35.4613328  42.7791643   1.9664857  35.2390051
  35.3614759 101.5902615   2.8509775  35.5258393 100.8355999   3.4164011
  34.4687200 101.8605709   3.0658084  61.9099228 105.8427845  80.3665543
  61.3339894 105.0877819  80.2461433  61.3513272 106.5085753  80.7677078
  38.4738326  16.1453867  80.1044178  39.3875265  16.3137960  80.3347206
  38.3591056  16.5694547  79.2539883  88.1288338  56.0094738  85.2012825
  88.0644798  56.6731024  85.8880806  89.0514278  55.7543945  85.2003956
  13.4684956   4.9156249  66.1940813  12.8999543   4.3818790  65.6390095
  14.1855192   4.3295598  66.4362383  88.5661697  44.6469212  71.8129301
  87.9289246  45.1370764  72.3324537  88.2063484  44.6515083  70.9259510
  29.2378712  66.5193558  25.8671379  29.6311569  66.6864157  25.0106049
  29.4921708  65.6205606  26.0762572  24.6993375  51.7272615  28.3071232
  24.5407224  50.8220482  28.0394173  25.1672649  51.6525745  29.1388083
  95.9455204  41.7440224  89.2039013  95.3946495  40.9630632  89.2574501
  95.8751869  42.1465492  90.0695038   9.2489481 105.0831890  29.6812654
   9.6395904 105.1001549  28.8075686   8.3061451 105.0411320  29.5213103
  25.1401830  83.1083393  12.6994216  24.6052718  83.2748032  11.9232810
  24.5844078  82.5692749  13.2622302   5.8314008  53.0103064  66.8714476
   6.4655995  52.3259687  66.6576529   5.2531850  53.0474901  66.1095285
  50.7166910 101.3337517  15.3306103  50.3012133 101.6813183  14.5414281
  50.1781225 101.6635799  16.0499096  93.4118080 105.6664658  89.0498734
  93.1128979 105.4309940  89.9281883  92.7996254 105.2240372  88.4618855
  54.2751408  66.3958979  13.8412321  54.9901962  66.2550259  14.4617832
  53.5121107  66.5732670  14.3912828  48.2798386  63.7867212  22.4067116
  47.4164915  63.8497114  22.8152394  48.4120321  62.8486681  22.2695279
  43.3883619 104.0580559   3.8481417  42.4940872 103.8819504   4.1405186
  43.2849693 104.4325256   2.9733199  86.5595245  61.2082291  75.1727819
  86.9925690  60.5501699  74.6290350  86.8709278  62.0455551  74.8290539
 110.4872227  56.2989807  82.3599243 109.6351051  56.4884043  81.9671726
 111.1017132  56.3328409  81.6267872  72.7561331  83.5400009  71.0520935
  72.1315813  84.2201710  70.8000565  73.3180952  83.4344864  70.2844381
   8.5091108  37.3772001  49.0364122   9.0801489  37.9052567  49.5943594
   9.0743136  37.0892477  48.3195734  95.6413651  45.2149820  87.9600525
  94.8933220  45.5579519  88.4489822  96.1953259  44.8064709  88.6252499
   3.3686125  45.2871990  71.5290499   2.6336303  45.7588673  71.9209194
   3.0025634  44.4390345  71.2783384  80.6011200  11.7386675  86.3000870
  80.1863670  11.0927439  85.7282639  80.7243443  12.5074327  85.7432652
  72.6147890  87.4342537  16.4745104  72.7796698  86.6422939  15.9628093
  71.6674566  87.4379730  16.6115510  53.7451315  85.7098675  11.1696708
  53.1893349  86.3953876  11.5403223  53.9381886  85.1325607  11.9083667
  27.9007530  69.9047995  15.6039906  27.1489573  70.3319120  16.0146081
  28.1957603  69.2646694  16.2516308  17.5621927  59.5733309  30.6174302
  17.0096695  59.0886021  30.0042510  18.4197426  59.6052408  30.1933742
  99.7755241  16.2908292  89.4005299  99.8872852  16.4653087  90.3350258
  99.7543716  17.1580064  88.9958191 100.0501728 105.6888962  90.1820374
 100.8626080 105.2985764  90.5042553  99.4255447 105.5662727  90.8969021
  10.6210852  22.6766300  31.0751414  11.1471260  22.0277429  30.6077456
  10.9559596  23.5202885  30.7712841  99.6788979   6.3614529  76.5502167
  98.8232994   6.0007668  76.3176203 100.3030968   5.6837928  76.2906361
  21.5034080  79.2507935  15.2829134  22.0060229  78.5483170  14.8704362
  21.9053054  79.3585443  16.1449468 100.0025177  42.2542048  85.0083733
  99.9583149  41.5211344  84.3944645 100.4043579  41.8843746  85.7944965
  38.6392832  87.5928593  17.7177095  38.6895919  88.2387924  17.0130968
  39.4666719  87.1145916  17.6637161  20.5797315  96.2943268   2.4593133
  20.1599097  97.0292187   2.0122018  19.8673058  95.8617496   2.9300129
  30.7547188  68.0565405  20.8336234  31.5662527  67.6917648  20.4806590
  30.2914238  68.3954906  20.0676584   9.3223196  90.8427334   1.1697026
  10.1562715  90.9213448   1.6329262   9.0827823  89.9206543   1.2625051
  41.9546032  57.5929451  23.2398272  41.0926390  57.2193336  23.0563402
  41.7673016  58.4321356  23.6604357  82.9437733  35.8637714  75.6704998
  83.6522961  35.4396319  76.1545849  82.8527737  35.3421617  74.8730850
  15.5079412 102.0312881   6.7212081  15.7109833 102.7197361   7.3544931
  15.5409455 101.2209129   7.2295696 106.3134098  16.0093498  68.0073452
 106.9067383  16.1201501  68.7502575 106.0287094  15.0971186  68.0621862
 102.7507114  40.2897549  58.2272243 102.9758358  39.7633839  57.4601030
 102.9350948  39.7180557  58.9724731 105.6970024 100.1817417  30.2654505
 104.7444916 100.1212502  30.3381944 105.8507538 100.4680157  29.3650961
  29.9202704  75.1279068   9.0134418  29.4780493  75.9177637   9.3245709
  29.2386270  74.6366262   8.5549247  20.3852534  77.2165346  26.4150929
  19.7482431  77.1587133  25.7029772  21.0869813  76.6184998  26.1578774
  45.9636736  29.0874863  45.6290388  46.7697859  28.7981820  46.0564899
  45.8109617  29.9665594  45.9756565  60.3089046  94.4379330   5.1058608
  61.2289667  94.7010326   5.0836241  59.8697233  95.0526619   4.5181063
  65.1877260  92.7592278  34.8228073  65.0820684  92.4421787  33.9258409
  65.6479740  92.0517159  35.2742720  85.0365353  22.6264715  87.2779560
  85.7730865  22.0574617  87.5014400  84.3056297  22.2858167  87.7936649
  58.4704685  98.9748192   3.8207263  58.0757141  98.7187386   4.6542883
  58.7940550  99.8629093   3.9717627  78.8017559  96.5266514  13.2290018
  79.6439981  96.0905075  13.3579743  79.0251780  97.4506569  13.1170487
  45.5426931  85.1127052   9.0912455  45.7945824  84.8361397   8.2101697
  44.6986151  84.6877670   9.2435247  15.1915824  30.9281158  72.5763226
  14.8499155  31.5848017  73.1831646  16.0814846  30.7570934  72.8846359
   5.1405770  29.8804665  73.9733601   4.3634170  30.3124452  74.3278265
   5.8639687  30.4646397  74.2006826  26.5546608  28.2853389  60.4425430
  27.1129251  27.8169942  61.0632038  26.5817714  29.1960454  60.7359838
  30.6476092  95.1216316  17.0191073  29.9401879  95.3721523  17.6132667
  30.2156472  94.9874496  16.1755228  42.7157211  88.2831860   2.0362510
  41.9885540  87.6670742   2.1249804  42.3090029  89.0897083   1.7194960
  63.5950184  90.0438690  11.4856124  64.0219212  89.4264698  10.8916318
  63.8500309  90.9064484  11.1582839  10.0191164  27.8628445  82.3041248
  10.9732115  27.9397678  82.2999287   9.7138107  28.6440754  81.8429279
  12.3083341  80.7486725  13.7928915  12.9613328  80.1812553  13.3831871
  12.5899088  81.6364002  13.5717845 103.3749104  17.1596563  70.3405714
 103.1266022  16.3515449  69.8916531 103.0574703  17.0434201  71.2360907
  91.1418247   7.8431696  29.1080189  90.9953022   7.4888772  28.2309580
  91.4626884   7.0984644  29.6166372  10.9213078  56.7701817  50.9593821
  11.2961268  56.9815540  51.8144083  10.0487018  57.1632385  50.9766102
   1.2154958  33.5697818  83.6984825   0.5960799  33.6273146  82.9709911
   1.5832034  34.4506240  83.7701988   3.0040732  29.3341660  87.6745224
   2.1932736  29.4576430  87.1809769   3.6799473  29.2352605  87.0039654
  16.3554859  24.8329902  89.3190289  15.7725382  25.4172659  89.8038197
  16.7022371  25.3747416  88.6101532  56.9847393  84.1096306  10.8643234
  56.2456322  84.7131348  10.7886147  57.6070642  84.4087410  10.2013934
  27.5783443   6.1249685  89.3674088  27.6396823   5.2369767  89.0153503
  28.4026766   6.2541229  89.8364735  75.0895023  51.5613604  86.5334415
  74.5538092  51.9600153  87.2192478  75.1210833  52.2208929  85.8404350
  25.5541039  85.3288460  19.0742683  24.9702001  85.4270744  19.8263586
  26.1462808  84.6187592  19.3219316  55.8333778  85.5606651  23.0755091
  56.0849476  86.2846661  22.5021267  55.7044220  85.9673977  23.9323449
  99.4165134   3.1362587   8.3050734  99.9565792   3.5217980   8.9949411
  99.1617298   2.2806415   8.6503786  77.0540667  20.8606529  40.6144810
  76.7438698  20.4244781  41.4080572  77.0069456  20.1864767  39.9366188
  27.3319387  48.3469868  90.0013638  27.6176262  47.6740932  90.6192875
  28.0469227  48.4096622  89.3680382  27.8488779  83.4280396  30.1141047
  27.4232435  82.7159214  29.6366715  28.5916448  83.0124187  30.5520415
  16.4723992 104.1004848   8.1180114  16.0611308 104.1982365   8.9768100
  17.1331692 104.7924042   8.0887288  46.0217762 103.6608124   4.0848961
  46.1042213 104.5847225   3.8486144  45.0959349 103.4602070   3.9477488
  38.7098956  93.2673740  23.8325143  38.9296722  92.6645470  23.1222081
  37.7883077  93.0899239  24.0207219  61.6865110  30.5991936   0.8447337
  61.5740108  29.6536326   0.9421472  62.6239252  30.7434297   0.9738915
  36.8432617   4.5490608  18.6375225  37.2216344   5.1727337  19.2572773
  36.5473127   5.0891656  17.9047656   4.4997144  89.5465755  29.7721696
   4.3973753  90.2735615  30.3863716   5.0923318  89.8826885  29.0998125
  41.0424376  73.1388474  20.4752278  41.6985750  72.5873899  20.0490665
  40.9965658  73.9228725  19.9280238  92.6862240  26.0589290  36.6808963
  92.5242615  25.3567696  36.0508418  91.8313885  26.4713836  36.8048596
  19.7474492  84.6331406   5.4131144  19.5853269  83.7652397   5.0433886
  20.6480122  84.8366737   5.1605397   6.8077922  55.7685709  87.1434307
   6.8699092  55.6662893  88.0931282   6.9256645  54.8833084  86.7989731
  52.4867201  50.0288486   6.5657532  51.7323685  49.4670963   6.7435753
  52.5061417  50.6431675   7.2995573   2.2229996  21.1226487  86.9439316
   1.7983958  20.2687263  87.0261574   1.5875936  21.7416978  87.3034668
  -0.1548657 100.3070641  84.6585083   0.5001153  99.7951698  84.1839600
  -0.1189687 101.1745167  84.2554474  31.5956616  73.2030869   9.5594144
  31.0411668  73.9771509   9.4615138  31.3961601  72.8748846  10.4361784
  62.4966574  33.2613802  31.6984463  62.4156332  32.3848248  31.3225222
  62.4921894  33.8477921  30.9419203 102.9256153   4.1499582   2.8579259
 103.4052277   3.5692710   2.2671562 102.1329403   3.6623260   3.0817825
  28.4617376 103.1986046  50.7342243  28.1014395 102.5027275  50.1845121
  29.0066791 102.7404690  51.3740540  44.0312433  73.9552355   9.2324013
  43.6498213  74.8308945   9.1694176  44.1989851  73.8336992  10.1669204
  20.0697541  21.2061858  74.6112537  19.2139268  21.6326714  74.6548653
  20.2316713  21.0892773  73.6751175  20.7542562  40.6655169  18.6404204
  20.7273364  39.9931073  19.3211353  19.9847579  41.2089682  18.8100159
  50.2517128  90.1689148  41.4401436  50.5463600  89.9719620  42.3293161
  50.4331684  89.3699455  40.9452105  50.3479433  90.5941296  13.7335110
  50.0630522  89.6852493  13.6386061  49.7475576  91.0924721  13.1790459
  42.8197002  91.2138081  46.9033670  42.8055573  91.0133076  45.9675121
  43.1326294  92.1172142  46.9500589  80.2612019   5.7606691   8.8213778
  80.8502197   5.0729859   9.1318434  80.6633759   6.0725141   8.0106741
  72.6929092  77.6450634   7.7333003  72.9629469  77.9818153   6.8789536
  71.7658949  77.8743124   7.7990031 102.2976208  21.9441652   4.7757033
 101.9199753  22.2686148   3.9581767 102.9930973  22.5684404   4.9826220
  58.4624434  76.8350935  54.8471260  57.8287125  76.7202902  54.1390038
  59.1949415  77.2978878  54.4403076  37.7319074  47.7755165  39.4667864
  37.9005766  48.0541754  40.3668594  36.9914627  47.1730280  39.5373559
 109.4849300  70.6500053  33.6326098 109.1998291  70.1088238  34.3688703
 110.0211143  70.0641823  33.0982471  14.9782062  95.0851059  13.4083426
  15.6556034  94.4114494  13.3487892  14.1632104  94.6233177  13.2114601
  12.4689269   3.4284773  87.8078747  11.9664729   3.5844365  88.6075306
  11.9421279   3.8234937  87.1131229  36.1822844  54.7401476   8.3061653
  36.2812138  54.6596575   7.3575002  35.2604270  54.5401430   8.4686679
  31.1261702  81.4466381  20.9158516  30.4785824  82.1449947  20.8201838
  31.8016553  81.8220997  21.4806366  93.1771374  24.3986177  77.7065992
  92.2533703  24.6477175  77.7355099  93.2052803  23.6520815  77.1081638
  84.4383812  46.0159206  58.8792086  85.2124882  46.2948942  59.3682575
  83.9271832  45.5080795  59.5092869  91.8909168  98.9533997  74.2834425
  90.9426022  98.9006329  74.4023228  92.0135975  98.9546299  73.3341360
  19.2662120  17.5304186  51.2745237  19.7190714  16.7458057  50.9654427
  19.7282338  17.7731991  52.0769119  86.5045738   1.9633573  86.0937214
  85.9565449   2.5491434  86.6159821  86.5388775   1.1521310  86.6006470
  40.3707504  63.3757305  35.0836968  39.6552539  63.9471769  35.3625202
  40.1558495  62.5220585  35.4595923  47.9872179  81.4463997   4.4651854
  47.2433043  82.0431519   4.3832296  48.4830952  81.5692139   3.6557102
  67.1659184  78.5584164  64.3132496  67.3329639  77.9961157  63.5568476
  66.6013479  79.2534447  63.9749861  45.5085897  69.7820950  29.5492673
  46.3999605  70.0542068  29.3309903  45.4954433  68.8413334  29.3731165
  51.4384842  74.4122362  10.2991867  52.3101091  74.0600109  10.1190853
  51.2738609  75.0230598   9.5808369   1.3861366   2.5466821  68.7539339
   1.9585387   1.7824487  68.6865950   1.1652748   2.5993073  69.6838188
  60.3012514 102.8463364  88.6859703  60.6766415 101.9759083  88.5530663
  59.3611860 102.6904678  88.7765884 111.8558502 103.0107784  80.0276566
 111.7691135 103.8413239  80.4955292 112.0356846 102.3673630  80.7131577
  34.7829914  37.8268838   5.7251579  35.4951954  38.3850074   6.0374022
  34.4608784  38.2671738   4.9386337   1.8131796  80.0632286  26.3444924
   2.2939217  79.4338322  26.8820643   1.7873301  79.6647263  25.4745722
   5.1347882  21.8776631  69.3265963   4.2529643  22.0089364  68.9781952
   5.4981709  21.1676550  68.7973738  21.4865708  48.2556677  91.7277718
  21.7045331  48.2968664  90.7966328  21.7022991  49.1259146  92.0629883
  67.1925116 102.6296139  80.7992172  67.6867819 101.9133854  81.1978912
  67.7266932 103.4075546  80.9595013 108.5415554  41.7964697  91.6874695
 109.0436459  42.5449657  92.0098019 108.8718224  41.6503906  90.8010006
  97.5610924  24.5623398  54.9502325  97.5629616  25.5191088  54.9789286
  98.3886909  24.3088412  55.3589344 109.2311764  20.6422257  79.5806265
 108.7485123  21.4598632  79.4592524 108.7813950  20.0126600  79.0170908
  17.0085227  14.4207275  83.0846405  17.7786398  14.0123808  83.4801197
  17.2012150  14.4376564  82.1471882 112.5581264  48.0965185  17.1669710
 112.8621769  47.3799229  17.7240002 111.9383621  48.5788631  17.7142012
  14.7764492  28.5307407  65.1590395  14.4002140  29.1023326  64.4897366
  15.2509916  29.1239357  65.7414150 111.9758224   8.9720470  82.1218014
 111.0748482   9.2756671  82.0109272 111.9093990   8.2465637  82.7426815
  58.1832409  58.6934662  17.7394629  57.5872803  59.2563629  17.2452903
  58.0242729  58.9218998  18.6553109   8.7283903   1.0036932  57.5936031
   8.5421884   0.0774729  57.7474785   9.3114626   1.2531087  58.3105755
  76.9338989  87.5565243  46.6324472  77.2139597  86.7172050  46.9976044
  75.9885788  87.5789165  46.7810965  79.8826885  18.1271672  89.5073032
  80.1977825  18.5958588  90.2801418  80.1183033  17.2135580  89.6686554
  64.0717554  58.7394476  11.0886931  63.4972477  57.9867649  11.2288344
  63.8136864  59.0816593  10.2328157  54.9266338 100.6488895  79.8888063
  54.2230988 101.1232948  80.3317547  55.5418015 101.3305187  79.6182680
  99.5531178 103.0283833  51.7300081  99.5484734 102.1626854  51.3216305
  99.6229458 103.6390018  50.9961796  14.8714018  21.7536402  78.7511396
  14.6585655  22.6851177  78.6938238  14.2740953  21.3329792  78.1326771
  82.6849079  36.4324093  87.1579456  83.6120510  36.4925122  87.3882008
  82.5940800  36.9871283  86.3831711  59.9576712  59.4763136  21.9178700
  59.0975571  59.8030758  21.6539383  60.3698635  60.2177858  22.3612118
  12.5028014  67.8997040  64.7838545  13.3930027  67.6315546  64.5561075
  12.2120750  68.4235620  64.0373421   8.7091172  54.8491764  60.5706787
   7.9419142  54.3725586  60.2537155   8.4635794  55.1417351  61.4483738
  89.0182400  41.1236906  65.7178926  89.5132637  41.4114809  66.4849377
  89.6788406  40.7568264  65.1303148  71.9900560  30.1453376  83.6413479
  71.0857964  29.9026275  83.4422493  72.2607756  30.6885195  82.9011440
   9.0890598  61.2151527  24.9660850   8.8795406  62.1477461  25.0171018
   9.2158777  60.9480143  25.8764601  64.1576569 104.5147053  77.4835730
  63.5427658 105.2417523  77.3858833  64.9395077 104.9121321  77.8669596
  40.1632071  29.7674680  10.3723085  41.0441542  30.0176668  10.0938022
  39.9322343  29.0323186   9.8044717  29.9578214  90.8967495   8.0536723
  30.8249807  91.0092640   7.6643091  30.0405812  90.1159573   8.6011666
   4.1518828  17.5670397  85.7382679   4.1008005  16.6801691  86.0947514
   3.2559121  17.8993380  85.7934666 100.9949207  59.6323633   8.3225858
 100.4789734  58.8732910   8.0508375 101.4561749  59.3394995   9.1085279
 109.2750835   1.3719161  62.1835375 109.4994068   1.0409366  63.0532265
 110.0572586   1.8439317  61.8978119  23.5051107  33.5153604  11.9532037
  23.6146140  34.3487048  11.4951921  24.3751383  33.1166148  11.9362593
   5.1681328   3.9654976  73.1518126   5.4615223   3.6399171  72.3008394
   4.2393398   4.1601294  73.0265379  39.0636492  94.9100113   6.9801599
  38.6148453  94.5556164   7.7477586  39.3350291  95.7886505   7.2458249
 103.1747246  82.8347492  78.8804150 103.2980824  82.7333927  77.9366255
 102.2697830  82.5633240  79.0341997  58.4183502  73.5416508  87.1170712
  58.9353228  73.9549828  87.8085423  57.8178215  72.9594469  87.5825119
 105.9277534  87.9437542  42.4774837 105.3775597  87.9695511  43.2603359
 106.8136120  88.1057739  42.8018808  14.6637142  49.4738674  74.6497107
  13.7908971  49.5962715  75.0231314  14.8569250  48.5471010  74.7911501
  28.2713056  44.9421883   4.2517763  27.3974156  44.6494579   3.9932066
  28.1132388  45.5941057   4.9346033  36.1152506  54.7088194  16.2736976
  36.1170387  54.3517876  15.3855777  36.1776829  55.6560898  16.1511552
  49.0712166  90.2583504  58.2027102  49.6100569  89.6168613  57.7397060
  49.1020823  89.9808407  59.1182756   1.5392107  78.6491299  23.9282775
   1.0242800  78.0571604  24.4765949   0.9469503  78.8925982  23.2168126
 111.4963341  33.3186889  23.6178946 112.4416637  33.4486389  23.5423827
 111.3207722  33.3773661  24.5570230  54.7436333  75.9946537   8.6785352
  55.0636387  75.9045315   7.7809238  54.7410679  75.1014757   9.0227133
  29.1326761  73.9045906   0.0156942  29.4050002  74.7550869  -0.3288769
  29.4728827  73.8885212   0.9102515 111.5293312  40.0092554  79.5020580
 111.1477089  40.1799965  80.3631306 112.2287464  39.3779683  79.6709681
  94.9787903  22.0978761  86.1510372  95.0870228  21.3280964  85.5925083
  94.5748711  21.7591953  86.9500160  36.6622043  23.8813114  75.5133200
  36.8062019  23.5199666  76.3879204  37.5263047  24.1837573  75.2338743
  92.1507835   4.4098961  35.2642894  91.2049770   4.5252484  35.1727891
  92.4120808   5.0722551  35.9040070  11.6254592  96.7988777  20.5821061
  10.6931818  96.9243813  20.4050779  11.7260075  95.8516312  20.6761050
  36.7562556  41.7780447  35.7054090  36.4200115  40.9968662  35.2661705
  37.0566511  42.3426676  34.9932313 109.6270752  49.3377781  12.4815440
 108.7269211  49.0220690  12.5608599 109.8531628  49.6402884  13.3610892
 106.9489861 101.5350342  72.2898912 107.3054695 101.7028046  73.1622505
 106.8381882 100.5849075  72.2550821   0.6172761  54.9875450  61.4113235
  -0.3176802  55.1809263  61.4798260   0.7920105  54.3894196  62.1379232
  27.9965591  27.2871733  84.2256069  27.8798699  26.5233040  84.7905064
  27.1109772  27.5109577  83.9394379  40.0998402  76.4538670  15.7364273
  40.7758856  75.9430599  16.1817026  39.2746401  76.0813808  16.0471153
  55.8130312   0.0396658   8.5781020  55.9652853  -0.4490120   9.3869555
  55.6665850   0.9405569   8.8665128 105.8677483  11.6301620  85.2224636
 106.2832546  11.2039328  85.9720707 106.5106392  11.5546358  84.5173264
   9.1797256  89.9787426   9.0040553   9.9482620  89.9752998   8.4334666
   9.0919757  89.0704727   9.2931491  57.9780006  90.5001736  11.1064458
  58.8453102  90.5485249  11.5085304  57.9784775  89.6668625  10.6354606
  76.5364933  71.8769979   5.5597252  77.4129772  72.1433973   5.2821630
  76.5726900  71.8937683   6.5160936 109.3547821  39.6777391  85.2418423
 109.0299702  39.0864348  85.9208775 110.2733135  39.8220515  85.4692554
  53.3153629 104.1002274  77.4723959  53.1406403 103.9301777  78.3980227
  53.8327217 104.9055672  77.4703217 100.7240486  81.1833668  54.3701267
 100.0738525  81.8802643  54.4585848 100.2577591  80.4758835  53.9248514
  52.0994568  62.2207689  18.1882143  51.8361473  63.0739737  18.5330975
  51.2748671  61.7591572  18.0358887 101.5918255  72.7394295  12.9590797
 101.6204357  71.9458246  12.4246585 100.8858204  73.2604551  12.5765598
  39.0910673  42.2379875  84.9605465  39.6332026  41.7508125  84.3400764
  38.4935594  41.5833330  85.3219891  72.7449226  85.1805496  14.9155605
  73.1331587  85.2757454  14.0458238  72.0007181  84.5934010  14.7826874
  31.1073303  54.2833090  47.5224113  31.8965340  53.7430811  47.5616407
  31.2856507  54.9177837  46.8282366  51.2763309  35.9125185  69.3604231
  51.1102295  35.1232839  68.8449144  50.4052114  36.2466455  69.5742941
 106.2398148  22.2784519  74.3522167 106.2032795  22.7240062  73.5058260
 106.3882446  22.9801798  74.9860811  22.3432779  31.4660406  35.4497194
  22.2146845  30.5382609  35.6470084  23.2192564  31.5102196  35.0663900
  48.7564659  88.1138420  14.4266248  47.8021860  88.0998898  14.3532073
  49.0150261  87.1944046  14.3632400 106.9244576  31.1731768  78.5432863
 107.1896076  30.2807736  78.3206987 106.4221478  31.0789657  79.3526316
   4.4384620  43.9067745  90.9875488   5.0523043  44.1165590  91.6914177
   4.4581118  42.9515409  90.9294033  79.4394870  28.2706501  91.9300831
  79.0764348  29.1383602  91.7525711  78.9969183  27.6938869  91.3074251
  29.1343760  83.1305599   2.0453456  29.3400741  82.6345253   1.2529656
  28.1778264  83.1541157   2.0716144  62.3539829  85.4295540  10.8010626
  62.3526287  85.0819969   9.9091899  63.2582903  85.3257561  11.0971892
  57.4913502  80.2535725  10.5959058  58.1419134  80.6133652   9.9929583
  56.6570520  80.6063080  10.2864444  66.8835783   3.5273007  40.8272362
  65.9940577   3.8699162  40.7400560  67.4180317   4.1078693  40.2854490
  57.4091578  69.6987486   1.2017944  56.6821671  70.2619362   0.9361963
  57.4531937  69.7970629   2.1529134 109.6685219  10.0900447  86.2436008
 108.7518501   9.9285132  86.4668846 110.1381874   9.3356037  86.5992165
  29.1251707  68.3836985   0.9757661  29.6575022  68.5535812   0.1985953
  29.2002463  67.4397850   1.1158523  83.6330318  82.7118778  82.2023678
  83.9208317  81.8172646  82.3842049  82.6936436  82.6322842  82.0367241
  90.2035809  18.3653629  87.5824165  90.8696556  18.3287132  88.2688808
  90.1053715  17.4575460  87.2952652  84.2750072  55.1240349  75.8518887
  84.9114513  55.3980875  76.5122414  83.9109230  54.3077183  76.1943817
 111.4123058  44.1044283  81.9466305 110.7275581  44.7056961  81.6536617
 112.0912266  44.6732044  82.3096657 106.6607571  18.2891166  66.5761805
 106.6222382  17.3474705  66.7436600 106.3221836  18.6889184  67.3772812
  89.9599075  82.8432083   1.9518301  89.3743515  82.3391056   1.3868177
  90.4628468  82.1815491   2.4266909  12.9928565  26.8149829  67.9105377
  12.3581517  26.3845181  68.4833193  12.6601505  26.6614819  67.0262432
  89.7205448  30.3975296  79.0809011  89.4377708  29.4952083  78.9322710
  90.2649212  30.6060672  78.3216953  42.0171785  71.4814281  13.4079754
  42.4281645  70.9855461  14.1160893  41.9044113  70.8437300  12.7030945
  67.4380112  87.3289871  81.5895081  67.9687500  88.1220055  81.5142250
  66.8492174  87.3623657  80.8355618  14.2317617  97.3445129  15.3295565
  14.3306911  96.9710636  16.2053311  14.8707962  96.8735123  14.7947443
  23.5805845  38.8003635  87.4625587  22.8617406  39.2562819  87.0247936
  23.6552644  39.2322969  88.3134937  32.5193572  59.6568251  83.3078480
  31.9113064  59.8615551  84.0181923  31.9886637  59.1831589  82.6673508
  23.7287569  58.6183739  69.4293976  24.2825842  58.7081051  68.6538649
  24.2398953  58.0724716  70.0268650  15.3249788   8.4812289  83.1956482
  15.6175077   9.3785095  83.0358219  15.5064666   8.3318418  84.1235447
   9.2790824  16.9873428  72.2183800   9.6741581  16.6619194  73.0272341
   9.2503405  17.9374325  72.3312235  97.4555016   7.1547925  73.5424662
  97.7353287   6.2585962  73.3560228  96.5380192   7.0701671  73.8018751
  27.7477455  59.4173002  31.3900161  28.0402064  58.8810682  32.1270061
  27.0178461  59.9280357  31.7401981  72.4672508  16.6892624  65.5750275
  72.0829487  17.5325978  65.8144665  71.7585707  16.0584557  65.7018900
  20.9523129  20.8242607   2.8494906  21.4033461  21.6678810   2.8827867
  21.6568518  20.1770949   2.8173867  16.8411922   6.6671485  82.1890354
  16.4165235   6.2506080  81.4391136  16.2696576   7.4025273  82.4099350
 112.5296801 112.5296801 112.5296801 109.4712190 109.4712190 109.4712190
