
49490  0.0000000e+00
  50.6511593  52.2023964  19.7987926  51.4144993  52.6153421  20.3153968
  49.8349571  52.7972746  19.7930813  51.0261679  52.3006868  18.8661575
  50.4961777  50.8119202  20.1355624  49.5033979  50.5530548  19.7674775
  51.5909386  49.8942709  19.5679080  52.5857639  50.2479219  19.8387611
  51.5157747  48.8484669  19.8658109  51.4009666  50.0377178  18.0351102
  51.4457655  51.1205769  17.4537218  51.3449287  48.9091730  17.2891712
  51.1953926  48.8709307  16.2910354  51.5542173  48.0533314  17.7829754
  50.3497314  50.7516289  21.6868162  50.9769106  51.5462875  22.3418188
  49.6514893  49.7659397  22.2910929  49.1859579  49.1890430  21.6051126
  49.6140814  49.4197035  23.7064409  48.8529348  50.0154018  24.2103195
  49.1784143  47.9690647  23.9130688  48.6312437  47.9915047  24.8555136
  48.4615040  47.7107716  23.1336927  50.2495909  46.9155836  24.0589380
  51.0672474  47.1032190  24.7548819  49.4529629  45.6265736  24.5264316
  50.1299238  44.7801971  24.4103646  49.3219948  45.5719471  25.6071568
  48.5757971  45.3257465  23.9535570  50.8495522  46.5877342  22.7193928
  51.4172697  47.4103832  22.2846055  51.6121721  45.8116055  22.7837563
  50.1365471  46.1329460  22.0317221  50.8688068  49.7473431  24.6113515
  51.9786930  49.6402359  24.1234708  50.7139444  50.0728750  25.8874607
  49.7370100  50.0507545  26.1428285  51.8291712  50.3160238  26.8110204
  52.3366213  51.1782598  26.3784146  51.3856268  50.6364346  28.1744289
  50.9220171  51.6193867  28.0909824  50.6264257  49.9143076  28.4748387
  52.4072838  50.6305408  29.1359639  51.9327688  50.8906412  29.9289227
  52.6825476  49.0312719  26.7962003  52.1595526  47.8812504  26.9113946
  54.0185022  49.1354513  26.7286801  54.7525501  50.4061174  26.6790009
  54.4852018  51.2336636  27.3361135  54.8466587  50.8441687  25.6853437
  56.1746454  50.0510263  26.9904995  56.2359619  50.0482273  28.0787683
  56.8305779  50.7837009  26.5203404  56.3093615  48.5735130  26.5458322
  56.9957066  48.0947876  27.2442985  56.5744781  48.4720421  25.4934454
  54.8624182  48.0164194  26.7178798  54.5871449  47.3598862  25.8924723
  54.7474194  47.1361303  27.9472780  54.5150518  45.9290934  27.9047561
  54.5671225  47.8218889  29.0795183  54.5997190  48.8286495  29.0055418
  54.3822002  47.3453140  30.4431391  55.1913404  46.6609764  30.6982446
  54.2969227  48.5846186  31.3802671  53.3120537  49.0108633  31.1893415
  54.2813540  48.1493711  32.3794746  55.4804468  49.5915222  31.4083695
  55.4707575  50.1225328  30.4565144  55.3212261  50.5899334  32.5529504
  55.6587410  51.5894794  32.2789216  54.2599535  50.6810522  32.7842426
  55.7607126  50.2689838  33.4973788  56.8278790  48.8252115  31.4718127
  56.9989347  48.2601595  30.5555367  57.6483727  49.5381212  31.3902521
  56.9467068  48.1696796  32.3345137  53.0488014  46.5252972  30.4159570
  53.0680561  45.4183435  31.0523438  51.9813871  47.0385170  29.8686004
  52.0862436  47.9040909  29.3588138  50.6724596  46.3791418  29.8339963
  50.3456640  45.9901094  30.7983398  49.5613527  47.3217154  29.3332529
  49.8780966  47.8497601  28.4338403  48.6404276  46.7575788  29.1857719
  49.3671703  48.3859777  30.4225492  49.2173815  47.9104280  31.3918376
  50.3218317  48.9077997  30.4890609  48.1522226  49.2324114  30.0753546
  48.3122206  50.4818916  30.1534057  47.0594263  48.7825441  29.6126080
  50.7900476  45.1044321  28.9370346  50.2458286  44.0765619  29.2827678
  51.5220976  45.1653433  27.7975678  51.8141031  46.0589504  27.4283791
  51.8823481  43.9336300  27.0321250  50.9565163  43.4439564  26.7302084
  52.6737356  44.3752813  25.7488871  52.3907948  45.3685093  25.4002643
  53.7271070  44.4288397  26.0239291  52.4292564  43.4069443  24.7590995
  52.8152084  42.5936270  25.0924993  52.8061342  42.8802967  27.6886559
  52.6915264  41.7016506  27.3862267  53.6521292  43.2864761  28.5792923
  53.9313412  44.2553282  28.5203695  54.3273163  42.3745203  29.4800401
  54.7224045  41.5621996  28.8700056  55.4403114  43.1041908  30.1375794
  56.0205603  43.3541727  29.2493677  55.1234150  44.0360451  30.6059003
  56.2354469  42.1476412  30.9750080  55.5325317  41.7964697  31.7304564
  56.9798899  41.0394526  30.2363133  56.2383270  40.3423834  29.8460913
  57.6226807  41.4049387  29.4354796  57.5910091  40.5544567  30.9975076
  57.3145199  43.0445004  31.6778421  57.9494143  42.3697519  32.2520661
  57.8094482  43.6007404  30.8817649  56.7893028  43.7783718  32.2891331
  53.3396006  41.7863369  30.4614782  53.4159803  40.6405401  30.8032608
  52.4204636  42.5994253  31.0186386  52.4908972  43.5491848  30.6823397
  51.5165138  42.1219444  32.0677376  52.2029543  41.6876411  32.7945685
  50.8715820  43.3349228  32.6843357  50.1105165  43.6951113  31.9921255
  50.2745628  43.1530523  33.5779762  51.6194725  44.0873241  32.9346347
  50.4744720  41.1066008  31.5820527  50.1290274  40.2125120  32.3741221
  50.1791334  41.1508942  30.2717447  50.3001213  42.0254183  29.7811627
  49.3930197  40.1190615  29.5709300  48.4017801  40.0159311  30.0124145
  49.0787601  40.4890537  28.1572533  48.4791803  41.3890266  28.2938075
  50.0071096  40.7655764  27.6574445  48.3341837  39.4580245  27.3348808
  48.7460613  38.8808417  26.1746860  49.6872282  39.1372013  25.7111359
  47.7413845  38.1588435  25.6096125  47.8797436  37.8684974  24.6521902
  46.6077805  38.0490136  26.4628768  45.4036427  37.3915505  26.3560748
  45.2066565  36.8967271  25.4165268  44.5747900  37.4227285  27.4967003
  43.6733294  36.8285894  27.5245547  44.9092388  38.1245708  28.6409450
  44.1758060  38.1143737  29.4336534  46.1074257  38.7893438  28.6938739
  46.3522482  39.3813944  29.5633221  47.0433950  38.7350869  27.6043582
  50.0730658  38.7508702  29.6792626  49.4545269  37.6934147  29.6374488
  51.4341211  38.6561060  29.8047519  51.8778849  39.5598269  29.8851180
  52.2014570  37.3727322  29.8182583  51.6915846  36.6509509  29.1801620
  53.6329317  37.5196743  29.2873096  54.4373035  37.8434849  29.9477863
  53.9933395  36.5153956  29.0645242  53.7537718  38.3108354  27.9469061
  53.6132908  39.3740249  28.1418276  54.7742748  38.1955719  27.5816774
  52.8176975  37.9199982  26.8918824  52.5622225  36.7600131  26.6227508
  52.3217487  38.8973618  26.1545467  51.8124914  38.6415482  25.3206873
  52.3826265  39.8632002  26.4435959  52.1342278  36.7737675  31.1881924
  51.6392326  35.6604528  31.2615967  52.2452879  37.5673175  32.2532892
  52.3630571  38.5557389  32.0822430  51.8345642  37.1254396  33.6271405
  52.3079300  36.1824107  33.9004970  52.1055984  38.2232094  34.7307014
  51.4123774  39.0507889  34.5801592  51.8261433  37.6586771  36.0593247
  50.7588959  37.4371576  36.0639548  52.4209309  36.7929864  36.3507175
  51.9540644  38.3480310  36.8939090  53.5320139  38.8031864  34.7751403
  54.2126608  37.9583693  34.8805523  53.7328243  39.3906474  33.8792253
  53.6952543  39.4523287  35.6354165  50.3554106  36.6497087  33.6967206
  50.0810194  35.5539942  34.1350627  49.3971443  37.3486781  33.0942154
  49.7395754  38.1341314  32.5595164  47.9277706  36.9854951  32.9675150
  47.4623156  36.8519545  33.9440489  47.2296143  38.0706286  32.1358204
  47.4395037  39.0204787  32.6275873  47.6969576  38.2504272  31.1676455
  45.6427860  37.9261374  32.0862055  45.1089048  38.6944890  31.5270066
  45.2946997  36.9572258  31.7282319  45.0772095  37.9747272  33.5244894
  45.2537346  37.0070529  33.9941120  45.4353523  38.7981820  34.1423535
  43.5658979  38.3539271  33.4140468  43.4758520  39.2605805  32.8157353
  43.1544638  37.5501490  32.8035045  42.9545689  38.6245704  34.7472358
  43.1735802  39.5024467  35.1960921  41.9481325  38.7064767  34.7254634
  43.1945038  37.8955412  35.4037786  47.7451372  35.5826211  32.3330140
  47.1083832  34.7645664  32.8987575  48.4755611  35.3319693  31.2858367
  49.1166306  36.1063910  31.1888838  48.5153580  34.0599442  30.5645466
  47.4864292  33.7483311  30.3847814  49.2593193  34.3006802  29.2095661
  50.1245022  34.9510527  29.3383384  49.5910454  33.3457589  28.8019133
  48.1362581  35.1982331  28.0717206  48.3770227  36.4186597  28.5590482
  49.3293905  32.9445434  31.2834692  49.2937899  31.8005824  30.8266425
  49.8856926  33.2556081  32.4623394  49.9313545  34.2564297  32.5903130
  50.4642439  32.3104286  33.3645988  50.5174351  31.3709331  32.8144813
  51.9109106  32.7561092  33.6889338  52.4126482  33.0012703  32.7528477
  51.7747259  33.7567139  34.0992355  52.8050709  31.8330026  34.5623708
  52.5727606  30.7866502  34.3641758  54.2849970  32.0158744  34.1330314
  54.7947359  31.3401556  34.8198199  54.4434643  31.6976118  33.1026435
  54.5195436  33.0753803  34.2356825  52.6361609  32.2556090  36.0405588
  52.8570318  33.3162355  36.1605048  51.6150379  32.0870924  36.3826227
  53.1918287  31.7028666  36.7980599  49.5812178  32.1572971  34.6966839
  49.2493343  31.0458231  35.0752926  49.1482258  33.2422400  35.3758574
  49.3524694  34.1297674  34.9391890  48.2072020  33.2282472  36.5424371
  48.6724281  32.9279804  37.4813247  47.6353216  34.6996260  36.6729164
  47.6700306  35.1017022  35.6603813  46.6001701  34.7293901  37.0130277
  48.5500050  35.5413437  37.5552416  49.5793056  35.2362180  37.3667240
  48.3109617  37.0637608  37.2569060  47.3637342  37.4711585  37.6102853
  49.0387440  37.7391529  37.7066612  48.3439636  37.2486234  36.1832047
  48.3841610  35.2391386  38.9956474  47.3574543  35.4298520  39.3080807
  48.7236786  34.2482114  39.2971349  49.0923405  35.9443736  39.4306493
  46.9493628  32.3668694  36.2824702  46.7357492  31.4706421  37.0759439
  46.3772583  32.3744917  35.0863504  46.6955185  33.0936623  34.4526291
  45.1689959  31.5270901  34.7567511  44.4598484  31.8253255  35.5289364
  44.6865416  31.9313335  33.3728766  44.5725918  33.0131102  33.3030415
  45.3341007  31.5725112  32.5728679  43.2994890  31.4591384  32.9986930
  43.2287264  30.3743744  32.9188251  42.5765896  31.7149091  33.7733531
  42.7278852  32.2383928  31.7643046  42.7463245  33.2912588  32.0457959
  43.4874964  31.9864988  31.0242796  41.3086653  31.7481971  31.4550710
  41.3031387  30.6874084  31.2044787  40.8210373  32.0124030  32.3934245
  40.7403326  32.5461125  30.3313947  41.3624859  32.3665428  29.5562959
  39.8955607  32.1160030  29.9828672  40.5977774  33.5309672  30.5041432
  45.3421402  30.0426793  34.9173784  44.3879747  29.2832756  35.0404668
  46.5717030  29.5329380  34.8002195  47.3290348  30.1878643  34.6674752
  46.8756247  28.1155396  34.8285508  46.0259581  27.4700093  35.0509477
  47.3065424  27.8408074  33.3690381  48.2423353  28.3974195  33.3183050
  47.5647497  26.7909074  33.2306814  46.3688564  28.2452583  32.2425890
  46.5863371  29.2780328  31.3350272  47.4457455  29.9273205  31.4140630
  45.6474733  29.6685553  30.3792548  45.7588100  30.5186272  29.7224593
  44.4666338  28.9199758  30.2130485  43.5863066  29.3672395  29.2743063
  42.6832151  29.1802835  29.5409107  44.2271471  27.8553820  31.0315609
  43.2644606  27.3675489  30.9907794  45.1682138  27.5307512  32.0385695
  44.9014616  26.6862249  32.6566458  47.9637384  27.6716161  35.7704449
  48.1704521  26.4966035  35.9991550  48.6208153  28.5997176  36.4699340
  48.4783030  29.5165563  36.0709405  49.6428728  28.2445693  37.4327064
  50.2033758  27.4013138  37.0291495  50.6857586  29.3631768  37.5917101
  50.9992790  29.7087336  36.6066241  50.2627611  30.2520108  38.0598450
  51.8823624  29.0398598  38.2231975  52.5212049  28.7847185  37.5535798
  49.0221786  27.9204512  38.7828064  48.7920809  28.8233781  39.5875907
  48.7534571  26.6093659  39.0816617  48.8211870  25.9712029  38.3017492
  48.2654667  26.1827660  40.3506279  47.2272778  26.4750361  40.5082130
  48.3356953  24.6140718  40.4588795  48.0219221  24.2450881  41.4353561
  47.2869635  24.0558887  39.4506431  47.1106195  22.9873776  39.5743084
  46.3253355  24.5578122  39.5576334  47.6329136  24.2033482  38.4275723
  49.6308184  24.0835977  40.1459360  49.9481106  24.5146608  39.3489981
  48.9362288  26.6825509  41.6433239  48.1955719  27.0294571  42.6003265
  50.2803993  26.6263390  41.7081928  50.8760643  26.3650870  40.9355211
  51.0530186  26.9387984  42.9671478  50.3951693  26.6720295  43.7942886
  52.3927689  26.2413979  42.9407024  53.0873966  26.7953610  43.5721493
  52.2107506  24.8417521  43.5760641  53.1498146  24.2946434  43.4928322
  51.9621992  24.9411535  44.6326828  51.3483858  24.3823624  43.0929613
  52.9551458  26.1508489  41.6640139  53.2678604  27.0175409  41.3944483
  51.2052584  28.4639812  43.0390406  51.8791723  28.9788342  43.9588737
  50.7041550  29.2086864  42.0986176  50.1669121  28.7739491  41.3620901
  50.8856153  30.6985164  42.1175480  51.8205690  30.8586574  42.6545048
  51.0339355  31.3617849  40.7139444  51.7742348  30.7960701  40.1482344
  50.0987768  31.2434220  40.1666164  51.4596128  32.7790904  40.7229424
  50.7064486  33.7927127  41.1093664  49.7440815  33.7732005  41.5991354
  51.3667250  34.9603033  40.8702087  50.9717894  35.8643293  41.0866785
  52.5842142  34.7835636  40.2106667  53.4940672  35.6825638  39.5468402
  53.3435678  36.7466712  39.6537566  54.5916843  35.1245546  38.8773966
  55.2349520  35.8095050  38.3449960  54.7397137  33.7011409  38.8355255
  55.5592203  33.2919812  38.2633376  53.7516117  32.8496742  39.3660903
  53.9720392  31.8101335  39.1733027  52.6394892  33.3732772  40.1246691
  49.8313713  31.4171529  42.9957914  48.6649227  31.0200119  42.8622770
  50.1654911  32.4071622  43.8368940  51.1393118  32.6437759  43.9625311
  49.2778349  33.0070567  44.8315954  48.2647943  32.6136780  44.7472763
  49.7815466  32.6494861  46.2286901  50.8583164  32.8015208  46.1541843
  49.3339157  33.2858777  46.9920588  49.7262144  31.1597729  46.6754484
  49.8782921  30.5587292  45.7789421  50.5301762  30.9257412  47.3732805
  48.4584093  30.7759571  47.4037647  48.4398651  31.2968326  48.3610773
  47.6302099  31.1051702  46.7762280  48.3030462  29.2348528  47.7334499
  48.7678480  28.6860275  46.9143963  49.0087986  28.9583039  48.5167408
  46.8788958  28.8875079  48.0931473  46.6046238  29.1747379  49.0217924
  46.1553097  29.2728114  47.5031710  46.6544962  27.9063535  48.0089712
  49.1793537  34.5157909  44.6829367  50.0019741  35.3186488  45.2493238
  48.1937885  35.0584173  43.8163996  47.2151041  34.3254066  43.0336046
  46.6260242  33.7414312  43.7407494  47.8119564  33.7108207  42.3596907
  46.3895941  35.3423595  42.2009993  45.4137850  35.5197906  42.6531172
  46.2182236  34.9860454  41.1852360  47.1980858  36.6091847  42.1644402
  46.6712141  37.5453734  42.3489952  48.0094242  36.6388083  41.4371490
  47.8816652  36.4846635  43.6234570  48.7458658  37.1397066  43.5131073
  47.0586157  37.0344043  44.6843338  46.4521217  36.3269877  45.4599571
  47.0607805  38.3675480  44.9352789  47.5731564  38.9781117  44.3149662
  46.3773155  39.0767980  46.0185719  46.7537498  38.8244367  47.0098925
  46.7838669  40.4985762  45.6862545  47.8723907  40.5148602  45.6319332
  46.4000273  40.7694292  44.7026873  46.2617207  41.7150831  46.5426683
  45.1735258  41.6542482  46.5274286  46.7578220  41.6876698  47.9974270
  47.8369379  41.7223644  48.1471252  46.3810921  42.5461245  48.5535192
  46.4131355  40.7892656  48.5094404  46.5305948  43.0626917  45.8486414
  46.1718082  42.9747677  44.8231459  46.0157204  43.8903236  46.3365269
  47.6066637  43.2115650  45.7591724  44.8233938  38.8167453  46.0260153
  44.3540049  38.5086584  44.9159861  44.1549253  39.0211582  47.1490955
  44.6678972  39.3130469  47.9687071  42.7239323  38.7460709  47.3147535
  42.5895166  37.6831150  47.1143579  42.2970057  38.8498688  48.8000107
  43.0372667  38.2610416  49.3416691  42.3349428  39.8632050  49.1997766
  40.9479904  38.3053780  49.1030836  39.9936843  39.0520430  48.8673162
  40.8062792  37.0899272  49.5200634  39.8925924  36.6696286  49.6128988
  41.6271973  36.5450621  49.7421360  41.7960024  39.3783069  46.2695408
  41.9929218  40.6246662  46.0715342  40.7617283  38.8135409  45.5939579
  40.2996826  37.4280477  45.6165886  39.8403788  37.1754551  46.5722752
  41.1089706  36.7123795  45.4717827  39.2817044  37.1869540  44.5249176
  38.4939027  36.5159655  44.8673248  39.8590016  36.8212605  43.6757421
  38.8675141  38.5784125  44.2142153  37.9710460  38.7170410  44.8185587
  38.6734414  38.7479281  43.1551123  39.9382615  39.5755363  44.6379185
  40.6647968  39.7658396  43.8479614  39.1912985  40.8572149  45.1329088
  38.9609504  41.7717028  44.3560934  38.8651085  40.8156443  46.3816214
  39.1140532  40.0139141  46.9431877  38.1496739  41.9549513  47.0263004
  38.2688713  42.8147364  46.3670111  36.6897917  41.6104412  47.2984409
  36.3630891  40.8247280  46.6172457  36.5382528  41.1373663  48.2686663
  35.7631683  42.8013182  47.1325541  35.9769034  43.7790871  46.4196873
  34.6143389  42.6537466  47.8012323  33.8451242  43.2869911  47.6356792
  34.5249820  41.8491459  48.4051609  38.9271617  42.4403191  48.3152103
  38.2451057  42.9955244  49.1691399  40.2804232  42.3842907  48.3428717
  40.6779003  41.9101954  47.5445271  41.2162256  43.0581999  49.2549562
  41.2987995  42.4593592  50.1619673  42.5889397  43.1377029  48.5354280
  42.9028893  42.2041845  48.0684376  42.5744295  43.9379406  47.7954865
  43.5843515  43.4746075  49.5164585  43.9050961  42.6295328  49.8398352
  40.8043766  44.5703697  49.6845770  40.4189920  45.3578043  48.8267374
  41.0469437  45.0327778  50.9330082  41.2360191  44.3633270  51.6652536
  40.8548307  46.4583111  51.3203144  39.9138308  46.8323231  50.9169054
  40.8836603  46.6155577  52.8814793  40.3801489  47.5310946  53.1919146
  40.3092098  45.7952881  53.3119011  42.2499466  46.5496874  53.4928989
  43.0570745  45.4836893  53.7355089  42.7963686  44.4387150  53.6550426
  44.2196178  45.9200382  54.4081736  44.7526646  45.3941822  55.0859976
  44.2763615  47.2899818  54.4011116  45.1852989  48.1841040  54.9220419
  46.0686016  47.7858210  55.3990746  45.0150681  49.5789862  54.6599531
  45.7699537  50.3240395  54.8635244  43.7974691  49.9993801  53.9952946
  43.6407518  51.0645866  53.9105797  42.8104925  49.0511703  53.6116648
  41.8836212  49.4372129  53.2138062  43.0837154  47.6739359  53.7915277
  41.8588114  47.4653816  50.7294846  41.4798784  48.6186314  50.6130886
  43.0190516  47.0262909  50.2320623  43.3102989  46.0786676  50.4251671
  43.9965010  47.7500772  49.4116306  44.4332266  48.5452604  50.0158262
  45.1770020  46.8154478  48.9057875  44.7846746  45.9948540  48.3051157
  45.6940794  47.5447750  48.2822371  46.0256338  46.2505054  50.0217342
  45.4481983  45.5425262  50.6162405  47.1483898  45.4481506  49.2924976
  47.7069187  44.9576426  50.0897121  46.7243671  44.6975565  48.6254787
  47.8008986  46.0750151  48.6847401  46.5436697  47.3419237  50.9964609
  47.2456932  46.8445683  51.6657066  46.9924116  48.1675482  50.4441309
  45.7467604  47.6694155  51.6641378  43.3197975  48.4909678  48.2045174
  43.5483980  49.6724081  47.9218149  42.4700785  47.7952147  47.4575424
  42.1577692  46.8720484  47.7227402  41.7959833  48.3473825  46.2555599
  42.6521492  48.6461782  45.6507397  41.0200691  47.2275066  45.4362679
  40.2549982  46.7765570  46.0682583  40.5806303  47.6595688  44.5372057
  41.8187904  46.0277748  44.9523163  41.2182713  44.7635937  44.8874474
  40.2089262  44.6478891  45.2538252  42.0745039  43.6209059  44.4851732
  41.6744089  42.6223087  44.3895721  43.3513975  43.8153553  44.0112782
  44.0975380  42.7807808  43.6027288  44.9476480  43.0283833  43.2317829
  43.8702202  45.0811958  44.0377140  44.8893929  45.2049255  43.7024832
  43.1555986  46.1819458  44.5592546  43.7132025  47.1061850  44.5947504
  40.8721828  49.4894505  46.7137623  40.9903049  50.6399298  46.2758780
  39.8882771  49.1696501  47.6150465  39.9078393  48.1784296  47.8079367
  38.8214016  50.0831509  48.0996084  38.2577085  50.4064608  47.2244930
  37.7916026  49.3231535  48.9850330  38.3566260  48.8908100  49.8108244
  37.1200085  50.0684214  49.4112158  37.0449901  48.3054352  48.2266235
  35.8697844  48.3426046  47.4759912  35.5513930  47.1201277  47.0878887
  34.6621108  46.8231201  46.5518236  36.5961242  46.2853622  47.3635721
  36.7096376  45.3138828  47.1116877  37.4795508  47.0616627  48.0964184
  38.4430265  46.7467785  48.4691906  39.3722653  51.2620926  48.8390923
  38.8601351  52.3603535  48.6011696  40.5208349  51.1872292  49.5485020
  40.9374523  50.2680302  49.5886230  41.1507225  52.4248886  50.1236391
  40.4062748  53.2125998  50.2394342  41.6773367  52.0003653  51.5834904
  40.8708477  51.7405653  52.2691870  42.3246384  51.1253309  51.5250158
  42.2610664  52.8305435  51.9812012  42.1175480  53.1737471  49.1919518
  42.5993919  54.2130232  49.5671415  42.2493362  52.7253962  47.9314137
  41.7436743  51.8836117  47.6951885  43.0460596  53.3568192  46.8192577
  42.8293037  52.7329016  45.9521675  42.5234318  54.7629738  46.3784504
  42.8661013  55.5239916  47.0795393  43.0330658  54.9766302  45.4389191
  41.0225010  54.6771336  46.1260176  40.6566429  53.9545059  45.3965998
  40.4906130  54.3993187  47.0359707  40.3810358  55.9904623  45.7962275
  39.3162704  55.8733845  45.5945587  40.4394436  56.6304302  46.6766405
  41.0375929  56.7053032  44.5906544  41.8604040  57.3009253  44.9860239
  41.3018560  56.0453033  43.7644196  40.0360060  57.6774740  44.0409899
  39.1497636  57.1933270  44.0245295  40.0166321  58.4739971  44.6616936
  40.3077936  57.9387331  43.1039906  44.5681524  53.2642031  46.9209242
  45.3749514  54.0794802  46.3709545  44.9902058  52.1891928  47.5902271
  44.3646526  51.5422010  48.0486870  46.4423323  51.9234562  47.7309513
  47.0077276  52.8516817  47.8135872  46.5857458  51.1554956  49.0207624
  46.0545540  50.2037764  49.0080357  47.6194000  50.8183670  48.9432383
  46.3250637  52.0097733  50.3052521  46.4742565  53.0612135  50.0596380
  44.9662685  51.7401028  50.9483671  44.8386955  50.6895447  51.2094307
  44.6953869  52.3520947  51.8087149  44.2645645  52.0544481  50.1757765
  47.3640585  51.5504646  51.2453032  48.3877659  51.7123175  50.9077597
  47.3238373  52.1313906  52.1667194  47.1619987  50.4967690  51.4376354
  47.0605707  51.0316467  46.5908051  48.2533646  50.7818317  46.5323591
  46.2174797  50.4930544  45.7015657  45.2281857  50.6577730  45.8210135
  46.5146160  49.7258091  44.5080423  47.3069572  50.2685213  43.9925241
  46.8888998  48.3390093  44.9434471  47.7334690  48.4713268  45.6196833
  46.0359669  47.9224825  45.4792786  47.1140385  47.3017979  43.8014650
  46.2663364  47.0944118  43.1483984  48.3486891  47.6483679  42.8905630
  48.5604954  46.7378950  42.3299551  48.0804253  48.4538555  42.2069502
  49.1564703  47.9787540  43.5435867  47.4727964  46.0360670  44.5131636
  46.7501497  45.7549143  45.2792025  47.4778128  45.2146339  43.7966967
  48.4230804  46.2288332  45.0110626  45.2879524  49.7137499  43.5577869
  44.1551590  49.7409391  43.9829922  45.5133724  49.7740507  42.2307348
  46.4290190  49.7843027  41.8046045  44.5691347  50.1854038  41.2427616
  43.5422277  50.1122141  41.6008234  44.7541714  51.6559696  40.9224033
  44.4165993  52.3550224  41.6875648  45.8203411  51.8677139  40.8415365
  43.9061069  52.1075678  39.7318745  44.4609976  53.0256796  39.0646195
  42.7883816  51.6411495  39.4776678  44.5822287  49.2107630  40.0482559
  45.3101826  49.5260191  39.1465211  43.7152910  48.1716728  39.9486947
  42.8088284  47.7214479  41.0399914  42.0714474  48.4474087  41.3825560
  43.4434366  47.3705721  41.8537855  42.0534992  46.5704489  40.4575634
  41.2361383  46.7943954  39.7720885  41.6403532  45.8767080  41.1897755
  43.0738258  45.9994411  39.5032573  42.7312469  45.2399588  38.8004589
  43.8596773  45.5511713  40.1112032  43.7373257  47.2089481  38.8757086
  44.7816896  47.1226120  38.5757852  42.8594780  47.6418877  37.6751590
  42.5268269  46.7381048  36.8787575  42.4302816  48.9574909  37.5032973
  42.8150654  49.5780468  38.2011151  41.8457317  49.5310354  36.2678766
  41.0980606  48.8495111  35.8621383  41.2170649  50.8641481  36.5835595
  40.6890678  51.2753820  35.7232070  40.5462217  50.7588625  37.4361944
  42.3190165  51.7533684  36.9167972  42.4268532  51.6430569  37.8643227
  42.9175091  49.5933056  35.1435590  42.6057482  49.5886469  33.9496756
  44.2322540  49.4234133  35.4879069  44.3828154  49.2158127  36.4648056
  45.3630638  49.2405033  34.5650887  44.9288321  49.2164993  33.5656071
  46.2487841  50.5498695  34.6064591  45.5893564  51.3760281  34.3405223
  46.9813776  50.8929682  35.8883882  47.0658255  51.9754648  35.9841919
  46.3992023  50.6003475  36.7622018  47.9702759  50.4348564  35.9060335
  47.1565914  50.3645802  33.6431885  46.6159964  50.3969240  32.8505301
  46.1303616  47.9772091  34.7181416  46.5986156  47.6968098  35.8128762
  46.3334131  47.1580791  33.6572027  45.5358362  47.0676327  32.4505949
  45.7909679  47.8367805  31.7216086  44.5007324  47.1445417  32.7833748
  45.6744337  45.6797028  31.8386197  45.4657507  45.7245111  30.7697225
  45.0230694  44.9897671  32.3751020  47.1178770  45.3307199  32.2622871
  47.8577185  45.8196783  31.6285253  47.2178984  44.2453766  32.2731733
  47.2035313  45.9877205  33.6710715  46.7564201  45.3292799  34.4158196
  48.6786795  46.1996460  34.1887546  49.2696095  45.2240324  34.6606493
  49.1749620  47.4523067  34.3680620  48.6521387  48.2225513  33.9763045
  50.3850603  47.6548862  35.1987529  51.1607313  46.9571543  34.8831391
  51.1434078  48.9447546  34.9678135  50.4795647  49.6295500  35.4955196
  52.5471878  48.9883423  35.5660033  52.4655247  49.0837765  36.6487432
  53.0682278  48.0822992  35.2566409  53.0221796  49.9320126  35.2977324
  51.2224579  49.1570520  33.4122753  51.6275644  48.2891941  32.8918886
  50.2242470  49.3330908  33.0114126  51.7683840  50.0811911  33.2224464
  50.3067732  47.3161602  36.7023635  51.3067150  46.9974804  37.3423982
  49.0940619  47.2617006  37.2379160  48.2438517  47.5226974  36.7592502
  48.8494062  46.8845701  38.6466146  49.5473576  47.4592543  39.2554712
  47.3920059  47.1602964  39.0265727  47.3365355  47.6879358  39.9787402
  46.7953348  47.6460218  38.2544541  46.7621279  45.8659697  39.2524743
  46.2819052  45.0750446  38.1913400  45.9133291  43.9135170  38.8232350
  45.6266928  43.0126095  38.3011198  46.1705112  44.0332603  40.1173973
  46.1596918  43.2669735  40.7752609  46.6413355  45.2366114  40.4326200
  46.8035984  45.6280041  41.4260387  49.4087362  45.4025078  38.9365125
  50.0403500  45.2536011  39.9973631  49.2265511  44.4166088  38.0176711
  48.8092422  44.6085835  37.1181703  49.8451519  43.0925322  38.1751657
  49.3563843  42.5878143  39.0085196  49.6233463  42.2384882  36.9179678
  50.0826168  42.7465391  36.0699964  50.2386284  40.8503485  37.0469689
  50.1506662  40.3910828  36.0623693  51.2749529  40.9783459  37.3596072
  49.7161150  40.1900625  37.7391434  48.0018520  42.1670723  36.7699766
  47.5589275  42.0798779  37.7621031  47.6040030  43.0927610  36.3541460
  47.4779749  40.9527111  35.9605837  46.3943100  40.9510422  35.8432746
  47.9271078  41.0537195  34.9725628  47.5071669  39.9860334  36.4633536
  51.3195133  43.2399416  38.4580612  51.7562151  42.4999475  39.3124151
  52.0060349  44.1197681  37.7326179  51.4928198  44.7288513  37.1115446
  53.4018087  44.4300842  37.9302382  53.7966061  43.4336662  38.1286955
  54.0521526  45.1050949  36.6868210  53.6637259  46.1181736  36.5824461
  55.1011276  45.2644300  36.9365764  53.9986229  44.2674494  35.3965020
  52.9623699  44.1810656  35.0696707  54.7977781  44.9038744  34.2872286
  54.5871735  44.3525934  33.3708096  54.3828773  45.8996964  34.1313386
  55.8432579  44.8706532  34.5937800  54.5552874  42.8555822  35.6484032
  53.9297438  42.1945477  36.2482595  54.6774006  42.4750042  34.6343279
  55.4789257  42.9010820  36.2254024  53.7091684  45.1606131  39.2578220
  54.6701622  44.7669983  39.8924446  52.8449106  46.1042261  39.6703887
  52.1530485  46.4940977  39.0463495  53.0230427  46.6748667  40.9608412
  54.0470934  47.0244694  41.0920000  52.1105909  47.9076290  40.9729671
  52.3324251  48.4952927  40.0821590  51.0930777  47.5169230  40.9621429
  52.3718166  48.8521814  42.1866655  52.4267101  48.2209826  43.0736113
  53.2991886  49.3982458  42.0137835  51.4414740  50.0417137  42.1920061
  51.4924908  50.5112934  41.2096643  50.4340649  49.6654987  42.3700571
  51.8421412  51.0543251  43.1969547  52.8447580  51.1460876  43.2772207
  51.1691236  51.6380548  44.1956997  49.8579121  51.6497517  44.2630529
  49.3739939  51.3602877  43.4251213  49.3727827  51.9472885  45.0974560
  51.8607140  52.2026300  45.1648998  52.8605509  52.0631170  45.1960087
  51.3448286  52.3458672  46.0213137  52.7273989  45.6825018  42.0774269
  53.4345722  45.7604647  43.0528641  51.7461014  44.7598267  41.9658852
  51.1709213  44.8183298  41.1377239  51.5229082  43.5812759  42.9195499
  51.2492132  44.0066051  43.8851023  50.3437948  42.6536131  42.5244284
  50.4923058  42.3031616  41.5030432  50.3772688  41.8282270  43.2355690
  48.9329863  43.2983494  42.5960922  48.9134693  43.6346817  43.6327219
  48.9398766  44.1194963  41.8793154  47.8188086  42.2661448  42.3891830
  48.0949974  41.0541248  42.3067808  46.6058588  42.7086210  42.4339676
  52.8361464  42.7218103  43.1762457  53.2544041  42.5809956  44.3335295
  53.5130501  42.2417879  42.1323490  53.0673122  42.3949814  41.2390709
  54.9215364  41.7543364  42.0073986  54.9503136  40.8463192  42.6097107
  55.3023195  41.4864349  40.5452681  54.9089956  42.3840809  40.0681591
  56.7486048  41.3461113  40.0852013  56.8417597  41.3822842  38.9997911
  57.3761368  42.1211720  40.5251884  57.0121241  40.3153324  40.3221750
  54.5213509  40.2575588  40.0773430  55.0778532  39.3704295  40.3796768
  53.5258341  40.2582645  40.5212402  54.2328644  40.2534437  38.5714769
  53.6225271  41.1236095  38.3298254  55.1175499  40.3643847  37.9444766
  53.7460852  39.3052721  38.3431864  55.9960556  42.6508951  42.6494408
  56.7537355  42.1228027  43.4768486  55.8183622  43.9412403  42.4408770
  55.0459337  44.1581821  41.8273735  56.6812849  45.0084162  43.0108023
  57.7013350  44.7103643  42.7683735  56.4557743  45.8614492  42.3708153
  56.5123940  45.1310492  44.5364523  57.5730753  45.2436972  45.1885223
  55.3148890  45.0067186  45.0705481  54.5562696  45.0247526  44.4040060
  55.0135088  45.0478601  46.4861012  55.6560564  45.7234001  47.0507956
  53.5870457  45.5482864  46.6334438  52.8832531  44.9253798  46.0813856
  53.2179260  45.4471493  47.6540470  53.3363867  46.9903374  46.1436415
  53.7164068  47.2342300  45.1515722  51.8307638  47.2578812  46.0244894
  51.7907953  48.2600451  45.5976677  51.4310455  46.5081978  45.3416300
  51.3102722  47.1571445  46.9768763  53.9978456  48.0936241  47.0304632
  53.7394047  49.0764523  46.6363049  53.5537004  48.0478764  48.0248165
  55.0672436  47.9738426  47.2040796  55.0510979  43.6142206  47.0883369
  54.8010683  43.4576750  48.3003950  55.3872299  42.5786257  46.2908459
  55.6769705  42.7881289  45.3462505  55.4456091  41.1958790  46.7949200
  55.7137299  40.5088854  45.9922695  56.4891052  40.9775782  47.9152489
  56.1842299  41.5750742  48.7743998  56.6399479  39.9396515  48.2119989
  57.8871012  41.5327311  47.4627256  58.2951498  41.0380936  46.5812922
  57.8743410  42.5906563  47.2005558  58.8797379  41.3750029  48.6122799
  58.5140514  41.8309879  49.5323086  58.9825964  40.3106737  48.8237715
  60.2009869  42.0080519  48.3137226  60.3677845  42.8451538  48.8536644
  61.2425423  41.5506792  47.6101971  61.0760498  40.6307077  46.7393637
  60.3035212  39.9936461  46.8714857  61.8286991  40.3698683  46.1184216
  62.3302937  42.1927214  47.7006626  62.3886633  43.0161047  48.2826757
  63.0982590  41.7675829  47.2010756  54.0003681  40.6033230  47.2057486
  53.8783836  39.6182942  47.9841423  52.9387569  41.1995554  46.6617060
  53.0268097  41.9423199  45.9829998  51.5674686  40.7453918  46.9079256
  51.4138269  40.2352858  47.8588676  50.6754112  42.0187902  46.8270779
  50.7368565  42.3781252  45.7998466  49.6731997  41.7129660  47.1273136
  51.1242485  43.2310963  47.7358007  52.1808910  43.3692694  47.5066185
  50.3964853  44.4795275  47.3137426  50.5955076  44.7609282  46.2796736
  49.3380880  44.2251396  47.3701811  50.5965090  45.3284454  47.9675245
  51.0495710  43.0605412  49.2723083  49.9827290  43.0261374  49.4931412
  51.6262722  42.2139406  49.6448565  51.4250994  43.9477968  49.7820663
  51.1287355  39.6816230  45.8767033  50.0973845  39.0587997  46.1833620
  51.9334030  39.3029976  44.8821640  52.7933598  39.8260784  44.7987509
  51.6906023  38.1503391  43.9250469  50.9818554  37.4716115  44.3994999
  50.9844112  38.7486339  42.7489805  50.0118160  39.0696549  43.1219482
  51.5538788  39.5883608  42.3506546  50.7088947  37.8334332  41.7413521
  50.0207996  38.3340931  41.2969780  52.9536867  37.4086356  43.4975195
  53.8695431  38.0464792  42.9384136  52.9373837  36.0535073  43.5704517
  52.1179581  35.6918073  44.0371656  54.1490459  35.2667332  43.3469868
  54.6153116  35.6206560  42.4275160  55.1544428  35.5614161  44.5111656
  56.0887766  35.1460290  44.1335773  55.2561331  36.6332030  44.6815681
  54.8754549  34.9572086  45.8463812  53.8139629  35.1072311  46.7014027
  54.0462446  34.1805077  47.6659679  53.2658768  33.8821530  48.3503723
  55.1434088  33.4510875  47.3738861  55.5337334  32.6904011  47.9115725
  55.6819916  33.9667797  46.2350988  56.4661980  33.5632849  45.6117105
  54.0369225  33.7848186  43.1885386  53.0421305  33.1639218  43.6558056
  55.0345421  33.0944395  42.6469135  55.6091404  33.6891961  42.0670891
  55.3062487  31.6308022  42.7113247  54.4598103  31.0235810  42.3905182
  56.4233160  31.3280559  41.7482090  57.2291470  31.9646859  42.1135139
  56.1498785  31.6412282  40.7406092  57.0265341  29.6416879  41.7705154
  55.6296158  31.1885643  44.2154264  56.6929722  31.3863730  44.7031546
  54.7002172  30.4420829  44.8365116  53.8002062  30.3984356  44.3802452
  54.9944305  29.8150659  46.1507130  55.5363035  30.5046034  46.7980289
  53.7422848  29.4600129  46.8539953  54.0625286  28.9818597  47.7796936
  53.1609678  30.3472733  47.1048689  53.0549097  28.4724832  46.1895895
  52.6147223  28.7942123  45.3994465  55.9237862  28.6326003  46.0057974
  56.4059639  28.2063127  47.0232821  56.1460066  28.1051898  44.8032284
  55.5958462  28.4574914  44.0329647  57.2260141  27.1190882  44.6045113
  57.1564293  26.4045882  45.4247236  57.0110607  26.4227128  43.2732725
  56.0456133  25.9176350  43.2431507  56.9130850  27.1280789  42.4480629
  58.0810833  25.3938389  42.9203129  57.8424740  24.0195179  42.7989674
  59.0089083  23.4478688  42.4273968  59.2554426  22.3977351  42.3740482
  59.9569893  24.4131398  42.3652267  60.9102821  24.0802121  42.3429966
  59.4311953  25.6042933  42.6411581  59.9683666  26.5402770  42.6834059
  58.6465597  27.7247906  44.7182703  59.4657707  27.1606660  45.4465437
  58.9353371  28.8976645  44.2598248  58.3000374  29.3534684  43.6204958
  60.1530123  29.6587634  44.5272827  61.0356474  29.0442801  44.3498898
  60.1730108  30.8145237  43.4642839  60.7778835  31.6542530  43.8064623
  59.2147160  31.2796879  43.2332230  60.9324884  30.1223230  41.9884348
  60.3766870  30.1364422  45.9754801  61.3690281  29.8936892  46.6051054
  59.3014622  30.8452201  46.4251804  58.5132885  30.9432292  45.8012581
  59.2958212  31.6079664  47.6529932  60.2334833  31.4350843  48.1812048
  59.1815042  33.1450939  47.4069452  58.2054043  33.3787274  46.9818068
  59.3394184  33.9538550  48.7207842  59.3924236  35.0062656  48.4420013
  58.5301733  33.6581135  49.3884420  60.2736521  33.8006234  49.2609978
  60.1732349  33.6169314  46.3407660  60.2468348  34.7038913  46.3754511
  61.1539602  33.2883978  46.6847849  59.9423981  33.2523251  45.3398275
  58.1657124  31.2025166  48.6416435  57.0029497  31.6754031  48.5746479
  58.5763025  30.3439736  49.6581936  59.8896217  29.6960831  49.7575426
  60.6731844  30.3976774  50.0437117  60.1275969  29.2354012  48.7987709
  59.6979380  28.5695648  50.7578516  59.9589729  28.8414907  51.7806053
  60.1909542  27.6226735  50.5377722  58.2115984  28.3575130  50.7695055
  57.9631996  27.8712177  51.7128563  58.0277014  27.6685500  49.9451160
  57.5499487  29.6531940  50.4707241  56.6412544  29.4947314  49.8899889
  57.1445751  30.4088235  51.7173100  57.2036123  29.9147487  52.8220320
  56.5153408  31.5671062  51.4464808  56.3349104  31.7641258  50.4724503
  56.1038780  32.6200509  52.4232721  55.8426666  32.1860695  53.3884335
  57.3755312  33.5329294  52.6869583  58.2272100  32.8994608  52.9348803
  57.5640392  34.1534066  51.8108463  57.1606445  34.5201755  53.8534069
  56.6393995  35.4022694  53.4815025  56.6045666  33.9728093  54.6144962
  58.5212183  35.0428987  54.3227720  58.9423323  35.5611610  53.4612799
  58.2117653  35.6985545  55.1366806  59.4562292  34.0001249  54.8648787
  59.0019846  33.4221435  55.6696796  59.6945333  33.3579087  54.0170193
  60.6636572  34.5768309  55.3673935  60.4163647  35.2903008  56.0381460
  61.2287569  33.9054871  55.8674526  61.1955738  34.9635434  54.6008301
  54.9728251  33.4504008  51.7525721  54.7443724  33.2487178  50.5757523
  54.2742395  34.2765307  52.5873184  54.7447348  34.4966197  53.4535170
  53.1440926  35.1182556  52.2015858  53.0666828  35.2196622  51.1190748
  51.9164753  34.2088604  52.4226999  52.0270061  33.3014154  51.8290472
  51.9462109  33.9105916  53.4706736  50.4511499  34.7352719  52.1027708
  50.2960634  35.6402373  52.6902199  50.2566814  35.0151372  50.5965137
  49.2195797  35.2862692  50.3990221  50.9641266  35.7915425  50.3052759
  50.5659962  34.1728330  49.9776840  49.3669224  33.6813307  52.3610687
  49.3086147  33.4993958  53.4341955  48.3730888  34.0451050  52.1001625
  49.6488810  32.7988696  51.7867327  53.1298637  36.3763523  53.0194235
  53.0814552  36.2928653  54.2523813  53.2239008  37.5544667  52.3743916
  53.2443619  37.6341295  51.3677502  53.3204460  38.8566303  53.1139994
  54.1957760  38.8754916  53.7632656  53.5307360  40.0331354  52.1972370
  52.6676321  40.0288343  51.5315533  53.4704876  41.0112286  52.6745272
  54.7427750  39.9800110  51.3072157  54.5034885  39.2031932  50.5809927
  54.8051310  40.9036684  50.7318258  56.1215782  39.6897101  51.9777346
  56.6296959  40.6625366  52.6334190  56.6852236  38.5704875  51.7332697
  52.0464420  39.0625906  54.0207815  50.9593153  38.5698009  53.7580109
  52.0983124  39.8038983  55.1250982  53.2377100  40.5610943  55.5146837
  53.4921837  41.3180065  54.7727728  54.0960455  39.8943996  55.5976057
  52.9006004  41.1801147  56.9302750  52.6287317  42.2334051  56.9992638
  53.7086201  41.1492348  57.6611996  51.8986797  40.1784945  57.5114584
  51.2418318  40.6272650  58.2566118  52.4013424  39.3034577  57.9234600
  51.1176634  39.7765207  56.2855291  50.7620811  38.7659526  56.4865589
  49.8396587  40.6295252  56.0261583  49.0539265  40.9234095  56.9493389
  49.4637489  40.9049749  54.7540522  50.0369740  40.5370188  54.0083170
  48.2701683  41.6891670  54.4755316  48.2159472  42.5009871  55.2008677
  48.2897329  42.3117542  53.0848980  48.1979275  41.4696836  52.3989010
  47.0960283  43.2850075  52.7817059  46.9613552  43.9770079  53.6130333
  47.4730778  43.8449717  51.9259167  46.1959314  42.7322531  52.5126553
  49.6732950  42.9847670  52.8002977  50.3910494  42.1651697  52.7657557
  49.6662903  43.3486128  51.7728424  50.0801802  44.0558910  53.7663460
  50.0954819  43.6639404  54.7833204  50.9888840  44.5715332  53.4557438
  49.2967272  44.8083973  53.6767054  46.9268274  40.9012222  54.6153307
  46.7052269  39.8626781  54.0043831  45.9500885  41.3885927  55.4320049
  46.0156059  42.5264502  56.3706160  46.0919809  43.4594297  55.8122110
  46.7930365  42.4053288  57.1249580  44.7197580  42.4539328  57.1284819
  44.0146065  43.1709194  56.7080069  45.0154305  42.6394749  58.1610775
  44.1237545  41.0645342  57.0386124  43.0500317  41.0492229  57.2256327
  44.6361017  40.3837538  57.7184153  44.6411180  40.6486845  55.6128979
  44.8253679  39.5760965  55.6738281  43.5595512  41.0725927  54.5832253
  43.7831974  42.0553970  53.8317299  42.4628401  40.3754568  54.4880199
  42.4104977  39.5662665  55.0901556  41.3522768  40.7274008  53.6298418
  41.6679382  40.7924795  52.5885820  40.2497959  39.6251917  53.5931873
  39.9306560  39.3984771  54.6104622  39.4275451  40.0852871  53.0451822
  40.6600285  38.3247995  52.8297281  39.7657967  37.7175522  52.6893568
  41.0572195  38.5590076  51.8420601  41.6894817  37.4810076  53.6296606
  41.5413904  37.3830795  54.8820925  42.5591230  36.8625402  52.9320049
  40.8181000  42.1111345  53.9573765  40.4451132  42.8867435  53.0995893
  40.6149817  42.2974586  55.2762938  41.0164642  41.5610123  55.8389282
  40.1285696  43.5289478  55.9141779  40.2001572  44.2543316  55.1037502
  38.6143303  43.3111811  56.3840723  38.0942488  42.6312971  55.7092571
  38.6588550  42.7957630  57.3434782  37.7877188  44.4792032  56.6022110
  37.3117876  44.8920536  57.7990437  37.5577307  44.4166756  58.7370872
  36.4477134  46.0155535  57.5779390  35.9308171  46.4484644  58.3299446
  36.3349319  46.2856150  56.2449694  35.3062630  47.0723057  55.5883217
  34.6404791  47.7838230  56.0540247  35.1518607  46.8665171  54.2217970
  34.4324398  47.5109196  53.7384844  35.8925080  45.9204102  53.5485125
  35.7342052  45.7801771  52.4894238  36.8687868  45.1125240  54.1682816
  37.4449420  44.3791580  53.6236572  37.0472836  45.2055931  55.5750179
  41.0134554  44.0446901  57.0428801  41.6288710  43.3066416  57.8123999
  41.0756874  45.3672600  57.3010492  40.4243469  46.4710474  56.5888262
  39.3804026  46.3383389  56.3048077  41.0159540  46.6329527  55.6877804
  40.5894375  47.7176857  57.4797583  39.7583246  47.7306271  58.1848717
  40.6630421  48.6215162  56.8749666  41.9763374  47.3787165  58.0691147
  42.3316526  48.0215025  58.8745213  42.7762222  47.5357771  57.3455000
  41.8868208  45.9654570  58.3968449  42.8295183  45.4182911  58.4025717
  41.3195848  45.7749510  59.8399496  40.1122808  45.6552362  59.9628115
  42.1687794  45.8444500  60.9124804  43.6314917  45.9510612  60.7749939
  43.9056826  46.7968655  60.1444912  43.9396381  45.1113319  60.1521015
  44.1166306  45.8852577  62.1851349  44.9239302  46.5981054  62.3531103
  44.4638157  44.8654652  62.3512506  42.9671097  46.1663294  63.1010294
  42.9839325  47.2416401  63.2785892  43.1249571  45.5866003  64.0104818
  41.7504120  45.6864405  62.2850084  41.6626501  44.6165466  62.4740028
  40.5009079  46.5047836  62.5971413  40.4512644  47.6896381  62.2946596
  39.4573903  45.8022070  63.0918360  39.5768189  44.8120070  63.2510376
  38.1110430  46.2857103  62.9616213  37.9973745  46.5237188  61.9040155
  37.2665143  45.0671864  63.4175014  37.5727272  44.2233706  62.7991867
  37.6090074  44.9114180  64.4405031  35.7528830  45.2798510  63.5375595
  35.4713821  46.0902023  64.2100096  35.1968360  45.5862665  62.1231174
  34.1632318  45.9322739  62.1168184  35.7777858  46.4580631  61.8221712
  35.3675270  44.8317289  61.3552380  35.1540303  43.8755369  64.0311050
  35.4894686  43.0448818  63.4101439  35.4026914  43.6989307  65.0775671
  34.0838265  43.7034082  63.9164829  37.7183557  47.5151920  63.7958956
  36.9883013  48.4109211  63.3162403  38.2615805  47.6640463  64.9923611
  38.7926126  46.8807507  65.3452730  38.2506299  48.8780689  65.8830976
  37.2685695  49.3499565  65.8517838  38.6271501  48.3436060  67.2580862
  37.9897499  47.5385380  67.6237154  39.6430874  47.9486847  67.2551441
  38.6922407  49.1133928  68.0270433  39.2283463  50.0157022  65.4166365
  38.9381742  51.1693478  65.7112026  40.1557922  49.7361279  64.4650793
  40.4605246  48.7757397  64.3951416  40.9276199  50.7007074  63.6891031
  41.0898066  51.5264273  64.3819141  42.2646093  50.1889277  63.2626009
  42.7020645  49.5282125  64.0110588  42.1358633  49.5522547  62.3872900
  43.2564878  51.1357450  63.0022717  44.0797997  50.8053398  63.3691359
  40.1327801  51.2540770  62.4601984  40.2685928  52.3875189  62.0126677
  39.2102337  50.4131079  61.9748116  39.0583444  49.5635271  62.4994469
  38.5006881  50.5794239  60.6851339  39.0960884  51.1473417  59.9702406
  38.2517767  49.2409992  60.0378847  39.2065144  48.7542105  59.8388624
  37.6517749  48.6509848  60.7306910  37.2555733  49.4338274  58.5153437
  36.5540218  48.3024883  58.6284399  37.1621203  51.3364124  60.9665060
  36.8325782  52.2929096  60.2376890  36.4506984  50.9935188  62.0162201
  36.7837381  50.1584101  62.4764204  35.0987315  51.4690828  62.3585415
  34.9755740  51.1973429  63.4069204  34.9855185  52.5377321  62.1761370
  33.9650774  50.7289219  61.5233612  32.7936792  51.1243677  61.5978193
  34.3382859  49.7671127  60.6805801  35.3052163  49.4759512  60.6997824
  33.5217834  49.1433430  59.5535898  32.4509883  49.2998648  59.6839619
  33.7181783  49.8780918  58.2038546  34.5909214  49.3807507  57.7806854
  32.5618076  49.6885920  57.2513294  31.6395950  49.8585510  57.8069782
  32.5835633  50.3302050  56.3704395  32.4949503  48.6352682  56.9790459
  33.9385533  51.3954067  58.2554245  34.8996496  51.5704727  58.7388945
  34.1276169  51.7881870  57.2563839  33.1126642  51.9069386  58.7497282
  33.8444376  47.6759768  59.4414806  35.0023317  47.3908806  59.4482040
  32.7930474  46.8094635  59.3726635  31.3610983  46.9500351  59.8088551
  30.6742430  47.0521832  58.9686775  31.4276862  47.7712536  60.5224752
  31.0279655  45.7432652  60.6926680  29.9900007  45.4323244  60.5741453
  31.3541651  45.8006334  61.7311287  31.8785477  44.7403812  59.9020100
  31.2806702  44.1139317  59.2400408  32.3804784  44.1041517  60.6309652
  33.0419493  45.3805494  59.2114544  33.9704823  45.0808287  59.6973467
  33.1222320  45.0282860  57.6703358  32.7643800  45.8551455  56.8629742
  33.6587667  43.8041878  57.3060751  33.8956761  42.7265024  58.2018423
  33.1745768  42.6903534  59.0184259  34.9221420  42.7918482  58.5626745
  33.6698818  41.4901209  57.3424482  32.6447630  41.1631012  57.1684122
  34.2612052  40.6022739  57.5664139  34.1648316  41.9433355  55.9304953
  33.7696242  41.3837957  55.0826550  35.2445817  41.9012928  55.7873964
  33.7809110  43.4074879  55.9205580  34.6432400  43.9537430  55.5383396
  32.5301290  43.7111950  54.9871540  31.5448666  42.9445601  55.0427628
  32.6199341  44.7848797  54.1812038  33.5170197  45.2469492  54.2239666
  31.5471435  45.2686024  53.2639933  31.7577577  46.2700367  52.8886414
  31.4322042  44.3705320  51.9775724  30.7325840  43.5649920  52.2005939
  30.8698869  44.8986435  51.2075043  32.6904035  43.9040947  51.3797283
  33.4267306  44.7380686  50.5510759  33.1560659  45.7468891  50.2764368
  34.7263336  44.3979216  50.2724457  35.2661228  45.0818825  49.6343040
  35.3445745  43.2379007  50.7983017  36.4088345  43.1459713  50.6392527
  34.5478153  42.2744560  51.4869785  35.0034547  41.3819599  51.8897676
  33.2349157  42.7076817  51.8410397  32.6761866  42.1451759  52.5743914
  30.1768708  45.4841423  53.9095783  29.0976095  45.3180075  53.2799482
  30.2098012  45.9610748  55.1855230  31.1292410  45.9881687  55.6026506
  29.0554261  46.2473202  56.0585880  28.2169056  46.0991669  55.3781223
  28.9619660  45.3492355  57.2823668  29.8744774  45.5058479  57.8576088
  28.0638504  45.6129456  57.8408909  28.7723947  43.8340282  56.9485760
  29.5790219  43.4776688  56.3079071  28.8452959  43.2351160  57.8563690
  27.4178219  43.4584475  56.3099384  26.4625835  44.2086458  56.2727022
  27.3423314  42.2744513  55.7522631  26.4775348  41.9979668  55.3097916
  28.1430364  41.6716099  55.8769941  28.9151192  47.6922035  56.5014505
  29.7614479  48.6005211  56.2135363  27.7275944  48.0006027  57.0776224
  27.0845151  47.2693491  57.3456192  27.4887943  49.3439960  57.6044655
  27.6515484  49.9398708  56.7063856  26.0927439  49.5043564  58.1810188
  25.3551507  49.1168547  57.4782372  26.1112475  49.0470219  59.1702604
  25.7086158  50.9337759  58.4048748  26.4368939  51.2091589  59.1676807
  25.8475041  51.5243435  57.4993134  24.3348622  50.9241676  58.9917850
  23.6149478  50.6182814  58.2326698  24.3005085  50.2795029  59.8700380
  23.9147377  52.3442125  59.3776655  24.4178057  52.4568272  60.3380489
  24.2614245  53.0797815  58.6518192  22.4699140  52.4119711  59.5541477
  22.1388388  53.3624697  59.4701719  22.0678735  51.8147278  58.8457966
  22.3129058  52.1211052  60.5085325  28.5633421  49.6025705  58.6825323
  28.7967277  48.7412071  59.5524740  29.1898036  50.8114243  58.7482119
  29.0557766  51.8239546  57.7184963  28.1600022  52.4393082  57.8023338
  29.0987325  51.5078163  56.6762304  30.1685071  52.8385067  57.9953003
  29.8398948  53.8182211  57.6484823  31.0215068  52.4438477  57.4432707
  30.3613520  52.6522112  59.5081329  29.7094536  53.3920670  59.9726105
  31.3741994  52.9106903  59.8170424  30.0324202  51.2121248  59.8506212
  31.0058188  50.7254457  59.9117708  29.3860197  51.1487484  61.2047577
  28.2197547  51.4144421  61.2813139  30.1407814  50.7656479  62.2113848
  31.1412430  50.7367373  62.0759583  29.6380234  50.3460455  63.5018969
  28.9736962  49.4818926  63.5045195  30.8303165  49.8750305  64.3800926
  31.3075042  50.7804251  64.7551346  30.3710127  49.5402145  65.3101683
  31.8249941  48.7801600  64.0172911  32.0753670  48.8871765  62.9618406
  33.0708241  48.8949871  64.9166012  33.7951136  48.0843067  64.8371458
  33.7106872  49.7433567  64.6738052  32.7076507  49.1028357  65.9230852
  31.2570047  47.3690844  64.2426872  31.9770741  46.5662622  64.0842915
  30.9021473  47.2819090  65.2696180  30.4550266  47.3144341  63.5065222
  28.8807034  51.3926935  64.2887735  28.1526875  51.0071659  65.2267933
  29.0849137  52.6742840  63.9616966  29.6099687  52.9207039  63.1348324
  28.3769608  53.8319063  64.5521879  27.3283410  53.5520124  64.6529770
  28.8997793  54.1314650  65.9649086  29.0523410  53.1473112  66.4079285
  30.3240609  54.8193407  65.7527399  30.6517100  55.0774670  66.7597723
  31.0462737  54.1455126  65.2918005  30.2169847  55.6538725  65.0597858
  28.0771303  54.9218845  66.8133593  27.2622609  54.4434929  66.9828606
  28.3257937  55.0023651  63.5120296  29.1957283  55.0032902  62.6001930
  27.4842358  55.9781313  63.7046957  26.7633843  55.9268093  64.4102716
  27.5447822  57.2312164  62.9452991  27.5280380  56.9451237  61.8936491
  26.2840819  58.1206465  63.2297325  26.2657595  59.0067530  62.5952387
  25.3518581  57.6155138  62.9769516  26.2312675  58.5750198  64.6034765
  25.8460999  57.7990294  65.0171041  28.8453722  58.0953646  63.0199099
  29.4888663  58.0161762  64.0188980  29.1475916  59.0219784  62.0744944
  28.3927584  59.3964911  60.8507919  27.5112057  59.9506855  61.1730289
  28.0275607  58.4944630  60.3597975  29.2269993  60.1147890  59.9412298
  28.5924077  60.7646275  59.3386507  29.8844838  59.4747925  59.3528223
  30.0980258  60.8517265  60.8992195  29.5721889  61.7492390  61.2248945
  30.9888458  61.2522793  60.4153776  30.3581977  59.8670912  62.0273638
  31.1961150  59.2301083  61.7440987  30.7437921  60.6023550  63.3016539
  31.9408703  60.5140781  63.6648703  29.7823358  61.3231516  63.9006472
  28.8418078  61.3304043  63.5326004  30.0919247  62.1600533  65.1007128
  31.0120583  62.7308893  64.9758244  28.9426827  63.1935978  65.4252863
  29.1940546  63.7762785  66.3115120  28.9360738  63.8798857  64.5784903
  27.6766825  62.6225138  65.7343388  27.3332810  62.3035145  64.8965311
  30.2716208  61.2943029  66.3417149  31.0455108  61.6421556  67.2401762
  29.7674966  60.0149202  66.3260412  28.9921641  59.8236418  65.7076788
  30.0570154  58.9779902  67.2960997  30.1285791  59.4337988  68.2836342
  28.8753200  58.0334234  67.2568321  28.7269831  57.5379515  66.2973499
  29.0245843  57.2392082  67.9882956  27.5646329  58.7975025  67.6453447
  27.7168441  59.5181179  68.4488678  27.1228909  59.3172169  66.7951345
  26.5018868  57.7700949  68.1500244  26.1362815  57.1644306  67.3208046
  27.0302534  57.1231651  68.8503265  25.3339529  58.4762955  68.7482262
  25.0574827  59.3410301  68.3056259  24.4756746  58.0696440  69.6280813
  24.5770597  56.9950247  70.3406572  25.3871584  56.4455938  70.0917244
  23.9012051  56.8160486  71.0695505  23.3791566  58.7704945  69.7581625
  23.2050848  59.4168139  69.0018082  22.6297331  58.2474709  70.1881790
  31.4377809  58.4311533  67.0184660  32.1825147  58.2773018  67.9831171
  31.7817521  58.1328726  65.7951355  31.1515427  58.1956625  65.0083685
  33.1753373  57.7621841  65.4950905  33.4890485  56.8746662  66.0446310
  33.3449602  57.4600172  63.9797211  32.8039670  58.2351732  63.4369850
  34.3799257  57.5446987  63.6483955  32.9269552  56.0823393  63.4368849
  31.8804336  55.9171438  63.6930180  32.9895401  56.0010004  61.8480349
  32.3733878  55.1233530  61.6526127  32.5757074  56.8404579  61.2893295
  34.0261674  55.8430958  61.5504265  33.7586212  54.8730755  63.9972258
  34.8160219  55.1162910  63.8930511  33.7002635  54.7023010  65.0721836
  33.3773685  54.0029860  63.4627295  34.2213392  58.7913322  65.9578085
  35.1807117  58.5081100  66.5673065  34.0013170  60.0487995  65.6101656
  33.1263399  60.1687908  65.1201439  35.0235415  61.1288881  65.7593775
  35.9747386  60.9467030  65.2592468  34.4829965  62.4256659  65.1889420
  35.3817821  63.0408478  65.1460218  34.0187478  62.2660208  64.2157555
  33.5207081  63.0531216  66.1077547  33.4386086  63.9766502  65.8588266
  35.4548740  61.3456964  67.2240019  36.6082311  61.5802193  67.4398375
  34.5948696  61.1639261  68.1785917  33.6725163  60.8442783  67.9193783
  34.9617505  61.3942814  69.5657539  35.2956557  62.4280024  69.6553755
  33.6847305  61.1909533  70.4365349  32.9481983  61.9369936  70.1381302
  33.3028436  60.2357149  70.0762796  33.8275290  61.4021683  71.9412565
  34.2098141  60.4670286  72.3504925  34.4877243  62.2558737  72.0942879
  32.4561381  61.6951847  72.5574827  31.9457340  62.5054407  72.0368338
  31.8220854  60.8088779  72.5342560  32.5448799  62.1357298  73.8912487
  32.6467872  63.1299162  74.0372086  32.5225973  61.4040184  75.0332689
  32.4820995  60.1202536  74.9647808  32.6027060  59.6896791  74.0591478
  32.3382950  59.6517324  75.8479023  32.3585868  61.9450140  76.2274361
  32.3647690  62.9536343  76.1750555  32.1379137  61.4153528  77.0586157
  36.0787988  60.3455687  69.9444962  37.1464872  60.6686926  70.4387331
  35.9185290  59.0107250  69.5715189  35.0488925  58.6406469  69.2153215
  36.8751240  57.9035616  69.6018219  37.1590519  57.8814840  70.6539679
  36.3112140  56.5761948  69.0844822  35.7929873  56.6733646  68.1304884
  37.0868850  55.8127451  69.0246058  35.2614212  55.9776306  70.0573492
  34.9422097  54.7478628  69.9732447  34.7048211  56.6844511  70.8839941
  38.0953074  58.2260847  68.7962294  39.1618872  58.1520367  69.3734694
  38.0088711  58.6571550  67.5453949  37.0773077  58.7718821  67.1723986
  39.1642594  58.9726496  66.6778326  39.8225904  58.1113338  66.5645218
  38.7121773  59.4998074  65.3194475  38.1030083  60.3902960  65.4745102
  39.5815396  59.7640705  64.7173882  37.8271508  58.6767054  64.4193602
  37.4126387  59.2219019  63.2341671  36.7542458  58.2495213  62.6266956
  36.2565637  58.3022356  61.6696501  36.9216657  57.0740223  63.2454395
  36.7012167  56.1574602  62.8829241  37.5664663  57.3568296  64.4360018
  37.8286147  56.5769815  65.1356602  40.0340796  60.0519133  67.3171329
  41.2082958  59.9607849  67.2985363  39.4603682  61.0680962  67.9766035
  38.4774041  61.2714720  67.8646994  40.1732826  62.1264791  68.6969519
  40.8551598  62.5193691  67.9427814  39.2731142  63.2874775  69.0490055
  38.9162803  63.7240648  68.1161880  38.4105563  62.8614378  69.5614386
  39.7487307  64.0141916  69.7076273  40.9646130  61.6479063  69.9173260
  41.7408133  62.3696709  70.4476070  40.7549953  60.3997707  70.4231262
  40.1555300  59.7651291  69.9152184  41.5922117  59.8399162  71.5176535
  41.8002987  60.5520487  72.3161936  40.8284855  58.7359667  72.2552776
  41.4137840  58.3816767  73.1038094  39.3979430  58.9987516  72.6649666
  38.7869477  58.1073427  72.5229311  39.3457603  59.1433859  73.7440681
  39.0330720  59.9175215  72.2057962  40.6623268  57.7021265  71.3629627
  40.1507139  58.0361605  70.6225061  42.9453278  59.3408298  71.0417032
  43.7588263  58.9389753  71.8867779  43.1767750  59.3467093  69.7480154
  42.4187183  59.5176840  69.1028643  44.3104029  58.7318039  69.0482330
  44.7732925  58.0118084  69.7231007  43.7546635  57.9212046  67.8273487
  43.3827448  58.6196041  67.0776749  44.5401859  57.3397541  67.3446703
  42.5027514  57.0469284  68.0714321  41.6658258  57.6875973  68.3492708
  42.1957493  56.2661123  66.7696142  42.6829481  55.2938461  66.8433285
  41.1247826  56.0633326  66.7724085  42.5173235  56.9419622  65.9772062
  42.6966238  56.1317253  69.2325783  41.7727566  55.5599880  69.3202400
  43.5152912  55.4700089  68.9496946  42.7521181  56.6845417  70.1703501
  45.4225731  59.7891474  68.7008381  45.1529551  61.0055399  68.6528873
  46.6693497  59.3332243  68.5090160  46.9274902  58.4389639  68.9011383
  47.7544737  60.2807903  68.1060791  47.7354908  61.1875820  68.7106180
  49.1884375  59.6828604  68.2475328  49.8277950  60.5627012  68.1753874
  49.2784166  59.2105722  69.2257643  49.4185400  58.7264872  67.1231365
  49.5724344  59.0694475  65.9594822  49.6814680  57.5144291  67.4450827
  50.1008272  56.9767618  66.6999912  49.7430849  57.2163010  68.4081078
  47.4530983  60.8584499  66.7841816  46.8170500  60.2510548  65.9297371
  47.9625511  62.0043945  66.4362001  48.6059046  62.3778105  67.1193981
  47.7173805  62.7466393  65.1553297  46.7157841  63.1756830  65.1264429
  48.4424162  63.5604286  65.1422930  47.8302050  61.9512939  63.8608599
  47.0199108  62.0925331  62.9502439  48.7696409  61.0088348  63.8355780
  49.3266726  60.9781027  64.6775198  49.0031195  60.0563669  62.7336931
  49.0102959  60.6943941  61.8499660  50.4443550  59.6157026  62.8132582
  50.6272268  58.9599800  63.6645460  50.8048964  59.0794373  61.9354582
  51.1029911  60.4707098  62.9657602  47.9253483  58.9942598  62.6594400
  47.3212624  58.8218737  61.5627718  47.6770258  58.2912731  63.7929535
  48.0645895  58.7792778  64.5877743  46.7440462  57.2142315  63.9690018
  46.9014835  56.4514256  63.2064819  46.9762135  56.5401030  65.4008198
  48.0376911  56.3039827  65.4756975  46.7988777  57.2553444  66.2039900
  46.2752390  55.2302122  65.6822634  45.2019691  55.4117298  65.7392645
  46.7290163  54.0799999  64.7622442  46.6002989  54.2282104  63.6900663
  47.7868748  53.8524294  64.8935843  46.1962271  53.1568575  64.9903584
  46.6490507  54.5760775  67.0964384  47.7194166  54.3878984  67.1801758
  46.2051964  55.0153875  67.9898071  46.2300110  53.5701370  67.0720387
  45.2586555  57.6530695  63.8785267  44.4377613  56.9256544  63.3763838
  44.9033546  58.9048910  64.3597460  45.5519629  59.3981266  64.9565125
  43.6583233  59.6484184  64.0650558  42.8464890  59.2200613  64.6528816
  43.7730789  60.9631300  64.6897078  44.0303183  60.7734156  65.7317877
  44.7114897  61.4231777  64.3801308  42.5706005  61.8989277  64.5739985
  41.6446400  61.3594866  64.7732449  42.7224922  62.5946760  65.3992081
  42.3165226  62.7690649  63.3201599  42.9977655  62.7150488  62.3015165
  41.2533808  63.5574102  63.3378077  41.0451889  64.1332436  62.5345850
  40.7579517  63.8202572  64.1777849  43.3911133  59.7118807  62.5863552
  42.3369884  59.1894388  62.2192287  44.4158173  60.2121115  61.8282127
  45.1203537  60.7271433  62.3366213  44.4320107  60.3082609  60.3794765
  43.5599279  60.9365749  60.1983738  45.6413269  61.2024879  59.9493170
  45.3076744  62.2104406  60.1959181  46.5466022  60.8981848  60.4746532
  45.9644699  61.3037491  58.4432268  45.0819540  61.9751120  57.6216125
  44.2273426  62.4466801  58.0838490  45.3886652  62.1415043  56.2568998
  44.7353172  62.7604866  55.6599140  46.4894772  61.5350962  55.6757450
  46.8083239  61.7222643  54.6610022  47.3652029  60.7793093  56.4799690
  48.2746935  60.3921890  56.0448122  47.0651388  60.6129313  57.8370142
  47.6885319  60.0801373  58.5398054  44.2678070  58.9470243  59.6581268
  43.3667898  58.8115835  58.8228941  44.9375343  57.8886843  60.1022053
  45.6587648  58.0403948  60.7927895  44.8135138  56.5095854  59.5975161
  44.9589348  56.5496731  58.5179996  45.9621620  55.6516314  60.1301908
  45.9798050  54.7895098  59.4634581  46.9099617  56.1898565  60.1400423
  45.7192612  55.3356934  61.1447287  43.4661198  55.8344650  59.7311401
  42.9539585  55.1865244  58.7869406  42.7228022  55.9543610  60.8940744
  43.1574202  56.5367842  61.5955019  41.3444948  55.4808426  61.1083412
  41.4265108  54.4353151  60.8112812  40.9776402  55.4335833  62.6207209
  41.6960478  54.7950459  63.1347847  40.9971571  56.7852688  63.3712959
  40.3966522  57.5486898  62.8766298  40.4294157  56.7387867  64.3006039
  41.9952774  57.2229052  63.3895922  39.8104501  54.6951437  62.7850533
  40.0433302  53.8390160  62.4184275  40.4131126  56.2346649  60.2183247
  39.6279597  55.6068516  59.5564699  40.4708719  57.5702238  60.1165533
  41.0514688  58.0807114  60.7664871  39.5631671  58.4321594  59.3302393
  38.5773349  58.3193398  59.7813559  40.1093245  59.8401833  59.4478130
  41.1895275  59.7761202  59.3168592  39.7090673  60.4879856  58.6679077
  39.8619318  60.5099201  60.7834387  39.6455193  59.7541332  61.5384579
  40.8323097  60.9534264  61.0065317  38.7765431  61.5766335  60.8194590
  39.0446568  62.4604082  60.2405357  37.8050423  61.2046194  60.4940367
  38.6673713  62.0241404  62.2609520  38.2830453  61.2126541  62.8789234
  39.6760392  62.2705317  62.5925875  37.8390336  63.2357311  62.4085474
  36.8834734  62.9623318  62.2289562  37.9265690  63.5996819  63.3466244
  38.2046223  63.9577913  61.8043327  39.6670556  58.0002022  57.8639317
  38.6142349  57.8809977  57.2729158  40.8626080  57.7021265  57.3145914
  41.6095781  57.8805256  57.9705667  41.1925220  57.1317816  55.9798002
  40.6989431  57.7296686  55.2136278  42.7078485  57.1440220  55.7645369
  43.2526445  56.5893650  56.5285063  42.9567289  56.5557575  54.8813009
  43.3093691  58.5109615  55.5391264  43.0304861  59.1752005  56.3571215
  44.3763733  58.2952309  55.5944347  42.9126310  59.1025352  54.2238998
  42.0099354  58.6399746  53.5066128  43.4920311  60.2209806  53.8187647
  42.9963827  60.5470657  53.0013895  44.1440964  60.7631779  54.3673372
  40.4633045  55.6833649  55.8054352  39.6822166  55.5487871  54.8955202
  40.6979561  54.7411776  56.6575623  41.3812685  54.8829842  57.3876858
  39.8284411  53.5388660  56.6611004  40.0809908  52.9229021  55.7980156
  40.1487541  52.5364637  57.7749443  39.7731400  52.9426432  58.7141132
  39.6442819  51.5910196  57.5755787  41.6078043  52.1123695  57.8965759
  42.1943283  52.9842472  58.1862783  41.7377949  51.0582638  58.9613152
  42.8118277  50.8843422  59.0269899  41.4017963  51.4795494  59.9088001
  41.2031507  50.1530218  58.6735821  42.2296572  51.5600252  56.6168976
  42.4171782  52.2775984  55.8181286  43.2102108  51.1451674  56.8503857
  41.6272831  50.7503986  56.2048912  38.3258295  53.8584185  56.7471123
  37.6424718  53.4723091  55.8384705  37.8113580  54.5880938  57.7379704
  38.4732080  55.0725889  58.3273125  36.3326836  54.9474001  57.8019953
  35.8963180  53.9521122  57.8861523  35.9325099  55.6330776  59.1119194
  35.6465101  54.8868084  59.8531294  36.7514896  56.3070440  59.3631935
  34.8066211  56.4152813  58.9719296  35.1930952  57.2576523  59.2222166
  35.7388568  55.6329107  56.5481091  34.8396277  55.1085854  55.9399605
  36.3042355  56.7553043  56.1323214  36.9657302  57.1734858  56.7707920
  35.8145976  57.3707390  54.8444986  34.8142719  57.7566099  55.0408411
  36.6757059  58.5802269  54.5534325  36.7239690  59.2472553  55.4141569
  37.6730895  58.2440853  54.2699957  36.0358334  59.3486357  53.3854866
  36.1860514  58.8359785  52.4353695  34.9688387  59.1777611  53.5283995
  36.5218449  60.8335972  53.4248781  36.4301085  61.3043022  54.4037151
  37.5597215  60.8180714  53.0921984  35.8140564  61.5794182  52.3805809
  35.8986020  61.3472033  51.4012814  35.2055240  62.7642202  52.5642538
  34.9325490  63.2967281  53.6784554  35.2968049  62.9458046  54.5526791
  34.4471574  64.1821194  53.6544609  34.7802448  63.3976173  51.5077496
  34.7036147  62.9717445  50.5951309  34.1560459  64.1760254  51.6644430
  35.8364105  56.4091635  53.6592388  34.8813915  56.3773155  52.8853083
  36.8721938  55.6377411  53.4148169  37.5332618  55.5339289  54.1713333
  36.9977593  54.7832394  52.2282362  36.5857410  55.1682711  51.2954473
  38.5079598  54.5683527  51.7818928  38.4524298  53.9162016  50.9102726
  39.1188431  55.9101391  51.5866852  38.5363317  56.4316511  50.8272076
  39.1535091  56.5314722  52.4815845  40.1222897  55.9681129  51.1649847
  39.1972089  53.7459326  52.7448654  39.5197248  54.3308973  53.4343576
  36.1904597  53.4357214  52.3401260  35.2796936  53.1623363  51.5743160
  36.4307833  52.6717710  53.3635044  37.1695709  52.9837942  53.9774561
  35.7648325  51.3373280  53.5418987  35.7917023  50.8518696  52.5663424
  36.5795898  50.4274321  54.5047235  36.5536213  50.7714987  55.5386734
  36.1515260  49.4307137  54.3979025  38.0192685  50.1765776  54.1002178
  38.6177254  51.0800791  53.9834356  38.8072753  49.2966557  55.0589371
  38.6765313  49.6376228  56.0859489  38.4043336  48.2861805  54.9904871
  39.8595548  49.3041515  54.7747707  38.0624008  49.5706987  52.7211046
  38.0060840  50.4172993  52.0368576  38.9857793  49.0171146  52.5507641
  37.1936846  48.9362431  52.5453186  34.2525339  51.4412498  53.8998556
  33.5718966  50.3943110  53.6398649  33.7052393  52.5709152  54.3595314
  34.3487763  53.3134413  54.5932293  32.2718287  52.9075003  54.5584774
  31.9548774  52.2076607  55.3316975  32.0425701  54.2544317  55.2128077
  31.0186172  54.6263504  55.2488327  32.4790478  54.1982985  56.2100267
  32.6309061  55.3172302  54.5111322  33.4683061  55.4918480  54.9468756
  31.3784051  52.7378321  53.3477545  30.1820827  52.8982067  53.4595442
  31.9859099  52.5244713  52.1819162  32.9869938  52.3906231  52.1765852
  31.2671304  52.1371460  50.9437323  30.3287697  51.6834259  51.2626600
  31.0770893  53.4328651  50.1417112  30.5924368  53.1523514  49.2065525
  30.3225660  54.0693855  50.6039190  32.2654104  54.2756319  49.6705103
  33.1351066  53.6430073  49.4929790  31.9520688  54.9013805  48.8348341
  32.7400947  55.3564167  50.6757689  32.9591918  55.0598621  51.7015123
  33.6826634  55.6957817  50.2462339  31.7982960  56.4735985  50.6497335
  31.3987851  56.6809034  49.7455692  31.6324449  57.4031496  51.5650511
  32.3487496  57.5337887  52.6650715  33.2174921  57.0343542  52.7913952
  32.0665145  58.2148600  53.3554220  30.6861043  58.2807636  51.3749313
  30.1925182  58.2706022  50.4938126  30.5428934  58.9756727  52.0937443
  31.8885565  51.0938168  50.0539112  31.4894652  50.9760237  48.9022923
  32.9014993  50.3546143  50.5374527  33.1203985  50.2888012  51.5212488
  33.5302043  49.3017149  49.7116947  33.9664149  49.7018814  48.7964439
  34.6686411  48.7854862  50.5648947  35.4585409  49.5197153  50.7232094
  34.2754817  48.5362673  51.5505028  35.0558686  47.8555489  50.1485157
  32.4965930  48.1362009  49.2958832  31.6768885  47.6602697  50.0984383
  32.5044870  47.7943993  47.9951143  33.1229520  48.2476330  47.3377132
  31.5126801  46.8823862  47.3946905  30.5502510  47.0563316  47.8759098
  31.2064028  47.2442198  45.9169912  30.6081986  46.5409231  45.3376579
  30.3569365  48.5280704  45.8463907  30.5466461  48.8845968  44.8339653
  29.2931914  48.3366108  45.9874249  30.7648063  49.2945766  46.5053368
  32.3944139  47.4701977  45.1591539  32.5093937  46.8915749  44.4018030
  31.9339824  45.3860188  47.4779701  33.0792594  45.0234270  47.1837425
  30.9504080  44.5001030  47.7092266  29.6898627  44.8649693  48.3255148
  29.1047025  45.2696419  47.4997282  29.7982502  45.5238581  49.1870356
  28.9309287  43.5291576  48.6365366  28.0411410  43.4690332  48.0098248
  28.5133934  43.5138988  49.6432781  29.8763943  42.4251795  48.3410358
  29.4126225  41.6528273  47.7274466  30.1813579  41.8664742  49.2258787
  31.1234808  43.0418921  47.5991440  31.9873047  42.7901506  48.2143974
  31.3876128  42.4992800  46.1970997  30.8668590  42.9486752  45.1754570
  32.1238518  41.3597250  46.2153530  32.4055004  41.0918236  47.1475554
  32.4500608  40.5015564  45.0735664  31.8138790  40.8545446  44.2619181
  33.9120507  40.7615566  44.4941521  34.5624995  40.7484055  45.3687096
  34.4232035  39.5172501  43.6796188  33.8769197  39.3681335  42.7482557
  35.4650140  39.7466612  43.4557819  34.4637895  38.6042929  44.2737246
  34.0288401  42.2081137  43.9765120  33.4273100  42.8714180  44.5980358
  35.0815320  42.4595642  44.1057920  33.5600638  42.4492168  42.5303173
  33.9231563  43.3307981  42.0020437  33.7281728  41.6470194  41.8117619
  32.4936891  42.6742363  42.5480461  32.1866250  39.0508604  45.4881001
  32.8923631  38.4597921  46.3247299  31.1321354  38.4219098  44.9169016
  30.1745939  38.9977264  44.0168715  30.6927466  39.3188024  43.1132507
  29.8374224  39.8982000  44.5302534  29.0920711  37.9775834  43.8486338
  29.3093705  37.3962951  42.9525375  28.1597042  38.5329962  43.7471056
  29.1611528  37.1596885  45.1374531  28.7895131  36.1390924  45.0459719
  28.5971856  37.5401354  45.9890985  30.6487322  37.1235991  45.4052114
  30.8105445  36.9503379  46.4691162  31.2777901  35.8735514  44.7238398
  30.8921814  35.4154229  43.6509180  32.2786427  35.3230834  45.3559589
  32.5864601  35.7198381  46.2322760  33.2065344  34.3571043  44.7495508
  32.7162862  33.6273265  44.1052055  34.3535018  35.0807381  43.9656544
  33.8739920  35.8714080  43.3885813  34.9779177  35.6076717  44.6871424
  35.2311134  34.2096615  43.0534983  36.2682605  34.5446777  43.0673265
  35.2610445  33.1511307  43.3118010  34.6754026  34.3647385  41.6425800
  33.6366487  33.7327456  41.3672638  35.2295828  35.0906610  40.8420229
  33.8791442  33.5151148  45.8470297  34.3714380  33.9835405  46.8319559
  33.7507558  32.1468067  45.6577969  33.5049152  31.8451047  44.7257900
  33.8914084  31.2557483  46.8082380  34.0733886  31.7681646  47.7529144
  32.5447607  30.5054021  46.9612932  32.4240708  29.8257422  46.1177301
  32.5548792  29.8314452  47.8179026  31.3839340  31.4945817  47.1038580
  31.3887715  32.4000311  48.1915712  32.1803880  32.3654008  48.9254284
  30.3694534  33.3892560  48.2981920  30.4274988  34.1455770  49.0669632
  29.3878889  33.5038781  47.3118877  28.5076022  34.4914722  47.4405479
  28.4542799  34.8066688  48.3457661  29.3914008  32.6326370  46.1889935
  28.6956930  32.7747011  45.3752279  30.3616571  31.6307259  46.1306000
  30.3818631  31.0592341  45.2144194  35.0115228  30.2304268  46.6669083
  35.0135279  29.3241549  47.4307966  35.8667731  30.3475189  45.6283188
  35.7468939  31.1771250  45.0648642  36.9336438  29.4814539  45.2969646
  37.2869372  28.8474488  46.1101818  36.5458202  28.5099149  44.0918446
  36.3564181  29.1373849  43.2209206  37.4092388  27.8650475  43.9282656
  35.3157043  27.5954366  44.4100761  34.5777416  28.0312872  45.0835323
  34.3382168  27.3143530  43.2693148  34.8979163  26.9295287  42.4168205
  33.5316515  26.6912913  43.6557817  33.9117789  28.2508922  42.9099417
  35.8892322  26.3593888  45.0965548  36.4257455  25.7660890  44.3561172
  36.4604545  26.6011024  45.9928703  35.0032806  25.8269930  45.4425907
  38.1183529  30.3409123  44.9295473  37.9693508  31.4480209  44.4168186
  39.3268013  29.8604321  45.1582623  39.4283581  28.8951635  45.4376268
  40.4707527  30.4996276  44.4455433  40.5449915  31.5265441  44.8033667
  41.8282175  29.8852611  44.9917793  42.5855923  30.6096697  44.6922541
  41.8556547  29.8458171  46.0807228  42.1712494  28.5029387  44.4087887
  41.1912107  28.0268550  44.3776846  42.6161337  28.5738254  43.4162426
  43.0126095  27.6438332  45.3775454  43.8784313  28.2763219  45.5735350
  42.5172710  27.5501013  46.3439608  43.3723783  26.3218093  44.7817421
  43.6924744  25.7253480  45.6360674  42.4475670  25.9239388  44.3639851
  44.4887686  26.4460897  43.8129520  44.5077658  25.5836296  43.2876873
  44.3836594  27.2340512  43.1899166  45.3259325  26.5943694  44.3581676
  40.2280140  30.5693626  42.9147243  39.8736048  29.6111560  42.2777081
  40.5188751  31.7825747  42.3575544  41.0038376  32.4212432  42.9715729
  40.2598524  32.2229862  41.0562229  39.2563367  31.8663192  40.8241701
  40.2659369  33.7704778  40.8521080  41.1637640  34.1952586  41.3010693
  40.1826143  34.0044570  39.7907829  38.9788008  34.4380999  41.3761187
  38.0791903  34.1701818  40.8220243  38.7298870  34.1130900  42.3863220
  39.0584850  35.9738255  41.3055277  40.1310778  36.5440464  40.9482574
  37.9167247  36.6251969  41.3885164  37.8947186  37.5706577  41.0339451
  37.0812845  36.0651827  41.4808416  41.1887789  31.5631819  40.0407839
  41.9647217  32.1899605  39.3638468  40.9724665  30.2827191  39.8298717
  40.3106356  29.8669052  40.4695463  41.6318607  29.3575239  38.9399338
  41.8812370  29.9633813  38.0688143  43.0278397  28.8032317  39.4888902
  43.6313105  29.6412325  39.8377180  42.7513313  27.8560805  40.6744242
  42.0672417  28.3942699  41.3305378  42.2722626  26.9297886  40.3572845
  43.6304760  27.6791811  41.2940311  43.7244177  28.0340528  38.3501410
  43.2651281  27.0502234  38.2540512  43.6153030  28.5886645  37.4181557
  45.1851559  27.8420210  38.7398458  45.6630898  28.8152242  38.6278033
  45.2420092  27.5586271  39.7908235  45.6707191  27.1605659  38.0413055
  40.7036543  28.3063030  38.5464859  40.0218439  27.6845360  39.4040012
  40.5024910  28.0368090  37.1907616  40.8519602  28.8364649  36.0712409
  41.8263054  28.4873247  35.7293963  40.8039236  29.9028850  36.2915587
  39.8218894  28.4093547  35.0290442  40.2294350  28.7356377  34.0722036
  38.8772058  28.9015722  35.2601099  39.7871923  26.9089031  35.2392769
  40.7032108  26.5125537  34.8011947  38.8720846  26.4667201  34.8453975
  39.7682738  26.7648768  36.7099857  38.7193108  26.8865728  36.9801092
  40.2920818  25.3862405  37.2577143  41.4793015  25.1924777  37.5737381
  39.3822932  24.4572067  37.3139596  38.4339118  24.5687437  36.9849610
  39.7510672  23.1503320  37.7765131  40.3688383  23.3599448  38.6497402
  38.5354424  22.2612238  38.1738472  37.8864646  22.2428083  37.2982955
  38.7830973  21.2264943  38.4107113  37.7968454  22.6987171  39.4086003
  38.3910465  22.8668165  40.5131626  36.4855385  22.7683854  39.3889976
  36.0933709  23.1707501  40.2282858  36.0027623  22.5481534  38.5296154
  40.7991266  22.4071741  36.8726921  41.7462969  21.8197274  37.5320792
  40.7665443  22.5174117  35.5411839  40.0371790  23.0336690  35.0704336
  41.5627575  21.6868615  34.7161555  41.4974356  20.6467533  35.0355554
  41.1429834  21.7654967  33.2879663  41.4209509  20.8545160  32.7579188
  40.0578594  21.8584108  33.3324003  41.6305208  22.9246807  32.5992632
  40.9910679  23.6082983  32.8122854  43.0731487  22.0462227  34.7709846
  43.8522816  21.1843657  34.3031955  43.4535313  23.2347035  35.2892447
  42.8000689  23.9822149  35.4744959  44.8144436  23.6768937  35.2612877
  45.2683687  23.5720658  34.2758632  44.7375441  25.1516819  35.7437444
  44.4303370  25.2148867  36.7876434  45.7426929  25.5306911  35.5589890
  43.5028887  26.0598254  34.6725965  43.6614704  27.3057103  35.1281476
  45.8148289  22.9454875  36.1629820  45.4553127  22.3351049  37.1969318
  47.1427870  22.9178572  35.7389212  47.3359346  23.4105659  34.8786712
  48.2507133  22.1221447  36.3410354  47.9209518  21.8647385  37.3475671
  48.3520079  20.8023620  35.5956793  49.1575623  20.2764845  36.1081553
  47.1524382  19.9545348  35.6815028  46.7209673  20.0765848  36.6750050
  46.4992332  20.1966238  34.8431563  47.4056435  18.9043891  35.5359745
  48.8005018  20.9115839  34.1018224  47.9438496  21.3367653  33.5788822
  49.6484280  21.5963936  34.0890145  49.0822029  19.9303913  33.7197161
  49.6134806  22.8132510  36.5030766  50.4580975  22.3289371  37.2075272
  49.8620987  23.9349413  35.8057237  49.0742397  24.2924523  35.2846074
  51.1788988  24.5514750  35.6733251  51.8060446  23.7043858  35.3954196
  51.1253595  25.5821013  34.4746137  50.5977011  25.0278425  33.6984181
  50.5296755  26.4705539  34.6841717  52.4068975  26.0081840  34.1393614
  52.3995543  26.4965200  33.3128786  51.7246294  25.0435448  36.9801474
  50.9039307  25.2950668  37.9095411  52.9924583  25.1746845  37.1440530
  53.4970903  24.9393964  36.3013887  53.6626339  25.7763219  38.2666707
  53.0095816  26.4132380  38.8632941  54.0240717  24.9492049  38.8776922
  54.9038506  26.5031815  37.8184414  55.2998495  26.4664626  36.6095209
  55.4399729  27.3274755  38.6741233  55.0481319  27.2293830  39.5998335
  56.6612720  28.0831265  38.5021782  56.6497040  28.7727928  39.3461728
  57.7831745  27.1412468  38.8415980  57.8910303  26.2947345  38.1634498
  57.6287556  26.6517878  39.8032022  59.4620609  27.9383349  38.8536859
  56.7713976  28.9183044  37.1808553  55.8380318  29.5661879  36.8242335
  57.8871441  28.6515045  36.4225459  58.5412216  27.9758644  36.7910457
  58.1279278  29.4633293  35.1817513  59.0233755  29.0055656  34.7613692
  57.0473766  29.2091632  34.0675926  56.1606312  29.7598433  34.3814993
  57.3839045  29.6890855  33.1486154  56.6842175  27.5063324  33.8064241
  56.2321424  27.3586082  35.0549078  58.5421848  30.9816694  35.4607868
  58.4157324  31.7966628  34.5081902  59.1418505  31.1922240  36.6178370
  59.0572834  30.4951525  37.3438120  60.0015259  32.4071240  36.8764758
  59.3501949  33.2806802  36.8486261  60.3536367  32.2355413  38.2832837
  60.9740019  33.0574775  38.6405969  61.0218143  31.3898444  38.4458852
  58.9609003  31.9959664  39.3588185  61.1533594  32.6496267  35.8920503
  61.3584661  33.7951636  35.4628086  61.8640757  31.5603089  35.4749799
  61.6700125  30.7304478  36.0169864  62.9784441  31.5041423  34.4902730
  63.7614727  32.1458244  34.8942685  63.3259201  30.4729748  34.4266129
  62.5362968  32.0729852  33.1810379  63.0320024  33.0688500  32.7196550
  61.4732265  31.4603186  32.6564980  61.3536596  30.5049467  32.9615712
  60.6841183  31.9010353  31.4425278  61.3584423  31.8865228  30.5862713
  59.5324755  30.9746766  31.1525297  59.8637819  29.9366331  31.1808872
  58.9380264  31.0816264  32.0598841  58.6684370  31.2845564  29.9548745
  58.9741230  30.9663630  28.7114501  59.8546362  30.4754686  28.3240032
  57.9445839  31.3867736  27.8024530  58.0029678  31.0036254  26.8697739
  56.8824005  31.9661546  28.5583448  55.7159233  32.4527836  28.0616879
  55.5073595  32.4488330  27.0020199  54.8308182  33.0418181  29.0732121
  53.8594246  33.4507632  28.8374925  55.1949215  33.0558538  30.4682732
  54.5284939  33.5962558  31.1242080  56.4715338  32.5864291  30.8521128
  56.8917084  32.6485229  31.8450880  57.3650646  31.9740343  29.9195886
  60.2596903  33.3529711  31.4475441  60.6122923  34.1584873  30.6088209
  59.4787884  33.7424850  32.4477649  59.3113041  33.0952573  33.2048321
  59.0913534  35.1563525  32.7216935  58.4226465  35.5631948  31.9631290
  58.4293318  35.1202893  34.0578675  58.8729239  34.3534398  34.6929026
  58.6027050  36.0481739  34.6029139  56.8877220  34.9255109  34.0329933
  56.6067314  33.9348388  33.6756301  56.3920164  35.0938511  35.5060482
  56.6084576  36.1105108  35.8341551  55.3453302  34.8785806  35.7210255
  56.9328022  34.3856812  36.1338592  55.9926414  35.9784794  33.3270788
  56.1908007  36.9763041  33.7184596  56.1952019  35.9030581  32.2587228
  54.9936438  35.6448746  33.6078072  60.2398348  36.1976767  32.7752686
  60.1052666  37.3011637  32.3367906  61.3559341  35.8925176  33.4885597
  61.4342403  35.0026035  33.9597583  62.5869370  36.6518188  33.5553694
  62.2940350  37.6477551  33.8876629  63.7090874  36.1511302  34.4561386
  64.0383577  35.1990247  34.0399933  64.9013996  37.0673013  34.6318889
  64.7069073  38.0942631  34.9411178  65.5084324  36.6600966  35.4404664
  65.5433750  37.0457911  33.7512541  63.2861900  35.9336710  35.7783961
  62.6369143  35.2329254  35.6835413  63.1463814  36.7900848  32.1077251
  63.2485628  37.9525495  31.7816758  63.3534336  35.7055545  31.2966609
  63.2272863  34.7363448  31.5512609  63.6153078  35.7616568  29.8012710
  64.5696211  36.2850285  29.7423387  63.8393879  34.3753815  29.2385554
  63.0095625  33.6736894  29.3229270  64.0295076  34.4183612  28.1661248
  64.9935579  33.5493064  29.8619533  65.8635330  34.2054939  29.8362923
  64.7439337  33.3471870  30.9035563  65.3591633  32.2415257  29.2310905
  65.9681177  32.4820089  28.3596325  66.0213137  31.7081189  29.9130988
  64.1052485  31.3233852  29.1499400  63.8947916  31.1723900  30.2087212
  63.2941389  31.9097733  28.7182570  64.3636274  30.0102377  28.5351944
  65.2350330  29.6273494  28.8730741  63.5936928  29.4289875  28.8342690
  64.4514275  30.0117087  27.5290203  62.5496578  36.6687465  29.0895963
  62.8732538  37.5310254  28.2277679  61.3191366  36.7070317  29.6080923
  61.0725594  35.9563589  30.2372146  60.3388071  37.5815320  28.8790846
  60.4600811  37.3629975  27.8181243  58.8944626  37.1890831  29.1848993
  58.7447834  37.4186349  30.2398920  57.8542995  37.9018283  28.3504796
  57.7797794  38.9532089  28.6282492  58.1579447  37.8745365  27.3039842
  56.8964958  37.3929715  28.4589958  58.6849689  35.8209038  29.0380335
  59.3903446  35.3323913  29.4686174  60.5431795  39.0917850  29.1860175
  60.4574919  39.8143888  28.2423973  60.8412981  39.4942164  30.3925943
  60.8778477  38.7769747  31.1027551  61.1558247  40.8941364  30.7919860
  60.4048109  41.5732098  30.3883266  61.2901402  41.0667944  32.3359823
  62.2131062  40.5887938  32.6642394  61.3720846  42.5989342  32.7227640
  62.1059561  43.0714178  32.0698524  60.4225969  43.1257200  32.6274896
  61.5712547  42.7509022  33.7835884  60.1620913  40.4703808  33.2139969
  60.4487419  39.4381046  33.4148574  60.0466013  41.0724449  34.1152644
  59.2018270  40.3877735  32.7049160  62.5317097  41.2964869  30.1099658
  62.6231289  42.3267698  29.3556237  63.5936928  40.4409122  30.2017188
  63.6301041  39.6917200  30.8780956  64.8777390  40.6595612  29.4190454
  65.4346085  41.5362310  29.7498775  65.7115030  39.3776274  29.6064568
  65.1015568  38.5207486  29.3204117  66.5286875  39.2950273  28.8898754
  66.3335228  39.1732717  30.9466815  65.5962420  39.0381360  31.7380452
  66.9787264  38.2949495  30.9277153  67.2600222  40.4147434  31.2569952
  67.9821491  40.6203032  30.4668164  66.6344213  41.2736177  31.5000176
  68.1580400  40.2288580  32.5067282  67.5947237  40.1350880  33.4351587
  68.6551905  39.2602229  32.4548388  69.1568327  41.3580942  32.5876927
  69.7863436  41.2526417  33.3704448  69.6324015  41.5309715  31.7135906
  68.7146807  42.1915388  32.9482174  64.6515036  40.7622290  27.9290462
  65.2482700  41.6388702  27.3002100  63.7607527  39.9812603  27.3021007
  63.1736803  39.3993926  27.8825116  63.5368967  39.9761248  25.8414865
  64.4637346  40.0640488  25.2746153  62.8120422  38.7890649  25.3853989
  63.4283113  37.9026031  25.5353904  61.9270515  38.7115359  26.0169649
  62.1774626  38.7200093  23.8969445  61.6462708  37.7784014  24.0359163
  61.4845562  39.5404291  23.7101555  63.2805777  38.5220242  22.8086591
  63.0906105  38.9551950  21.6087461  64.3929291  37.9877877  23.0843258
  62.7550030  41.2382460  25.4094934  63.0762625  41.8615675  24.3877745
  61.8299866  41.7014790  26.3078547  61.6654491  41.1302328  27.1243787
  61.2268209  43.0216599  26.3507247  60.6827354  43.1928968  25.4218793
  60.1229811  43.0340576  27.4025464  60.5624485  42.8511858  28.3831215
  59.2837477  44.3263435  27.3906541  58.7787914  44.2830229  26.4256454
  58.5823059  44.1644287  28.2091069  59.9193859  45.1900291  27.5858712
  59.2083311  42.0456314  27.1237016  59.7996473  41.2926531  27.0531511
  62.2327042  44.1313887  26.4768910  62.1307325  45.1587105  25.8891296
  63.3177376  43.9182520  27.2363234  63.3712053  43.0354023  27.7239919
  64.3370008  44.9529696  27.4935603  63.8347244  45.9061718  27.6585484
  65.3003407  44.6574831  28.5860634  65.7086802  43.6625957  28.4084129
  66.4103413  45.6867838  28.6544085  66.0716200  46.6642380  28.9978385
  67.1247149  45.3658628  29.4125509  66.9253397  45.6811237  27.6937556
  64.4925022  44.4966125  29.7985816  63.9394379  43.7174845  29.7054076
  65.1434660  45.1528120  26.1835623  65.3079033  46.2336445  25.6972837
  65.7086277  44.0094185  25.6965423  65.5202055  43.1788349  26.2394285
  66.5624857  43.8924932  24.5063114  66.3411713  44.6604490  23.7651110
  68.0155993  44.1156101  24.9717140  68.0666018  44.8119211  25.8087587
  68.6170483  43.2378817  25.2082777  68.8017559  44.7400618  23.7918186
  68.4922171  44.3642473  22.8166008  68.4778786  45.7730484  23.6647511
  70.3682899  44.5688200  23.9630222  70.9231281  45.2595997  23.3281422
  70.6349230  44.8855543  24.9713326  70.6530380  43.1772518  23.6219263
  69.9965715  42.6050615  23.1103110  71.5976763  42.5499392  24.1327000
  72.5860167  43.0724192  24.8593855  72.6632309  44.0633011  25.0390673
  73.2208252  42.3961735  25.2591515  71.7134523  41.2524319  23.9659739
  71.0125589  40.6459808  23.5646439  72.5705004  40.8083963  24.2633200
  66.4853621  42.4851656  23.9426422  66.4729738  41.5242052  24.6923852
  66.6211033  42.3703146  22.6387000  66.7443514  43.2042980  22.0824814
  66.6622877  40.9512901  22.1148491  65.8366776  40.5249548  22.6846838
  66.0526466  40.7942343  20.6491232  65.1671743  41.4279652  20.5999255
  66.9813251  41.1473799  19.4434440  67.3036766  42.1886253  19.4441795
  67.8959846  40.5545139  19.4418538  66.4272261  40.8794308  18.5438430
  65.5947113  39.4455910  20.4526424  64.8937941  39.2286849  21.0717320
  67.9428720  40.1267815  22.4423385  68.9878654  40.6951284  22.8066206
  67.8472042  38.8271046  22.4677062  66.9484043  38.4690046  22.1778488
  68.9076996  37.8852844  22.6839781  68.5670471  36.8640423  22.5133324
  69.9875212  37.8493404  21.5200448  69.4776821  37.8584766  20.5566740
  70.4530764  38.8272214  21.6429496  71.1173487  36.8227506  21.4481497
  71.5318775  36.6865373  20.4492927  71.8824100  37.2197080  22.1153855
  70.7826710  35.3996730  21.9316673  71.6802263  34.6452594  22.3743773
  69.6347284  34.9826789  21.7806983  69.4479227  37.8800368  24.1662836
  70.5731583  38.3899403  24.3633127  68.7502527  37.2226286  25.1335382
  67.4440575  36.6573286  24.8764610  67.4956083  35.9517241  24.0472651
  66.7403364  37.4553418  24.6397185  66.8279934  36.1085796  26.1855698
  67.1684885  35.0882339  26.3618088  65.7469273  36.2172747  26.2725949
  67.4716282  37.0886397  27.1706772  67.4830627  36.7919612  28.2194638
  67.0454264  38.0864644  27.0667219  68.8982391  37.1794343  26.5647507
  69.2692280  38.1390333  26.9248009  69.8759460  36.1344051  27.0460010
  70.1991081  35.2193022  26.2598014  70.3212976  36.1251044  28.3661580
  69.9721050  36.7947197  29.0368176  71.0751534  35.0461030  28.9255285
  71.6967344  34.5998883  28.1492376  71.9979143  35.5091834  30.0397491
  71.3692284  35.7852983  30.8862853  72.9479504  34.3625212  30.3538799
  73.3713341  34.4968200  31.3492751  72.3462343  33.4556842  30.4146004
  73.6782312  34.3494964  29.5447946  72.9382801  36.6557074  29.5347786
  73.2676363  36.4870620  28.5095048  72.3337984  37.5625658  29.5173883
  74.0843582  37.0784330  30.5242038  75.0107479  36.5463114  30.3080010
  74.3336725  38.1273055  30.3635550  73.7337637  36.9249821  31.5448117
  70.0845528  34.0141964  29.4363117  69.2218399  34.2329454  30.3004813
  70.1151657  32.8577852  28.8054824  70.8386612  32.6782370  28.1240058
  69.3462181  31.7375827  29.2057610  68.3025694  32.0400238  29.2919040
  69.4056225  30.5989242  28.1692791  70.0287151  30.7363367  27.2855473
  69.8393869  29.6957517  28.5984969  68.0167484  30.2919078  27.7925968
  67.1975660  29.9268913  28.6111069  67.6304960  30.4796696  26.5807056
  66.6806984  30.3207707  26.2761712  68.3130074  30.8897233  25.9593081
  69.7641420  31.2319303  30.5777621  70.9624624  30.9134507  30.7160664
  68.8091373  31.0755801  31.5577197  67.8694773  31.3892531  31.3608837
  69.0302086  30.3221464  32.8123760  69.3953180  29.3117785  32.6281190
  70.0900459  30.9058619  33.7344575  71.0278130  30.9123492  33.1788898
  69.9323225  32.2467732  34.3961692  68.9211226  32.5200891  34.6976185
  70.5429077  32.3071766  35.2970815  70.2099037  33.0243945  33.6845851
  70.2943516  30.0184894  34.8281193  70.9339857  30.4549909  35.3955173
  67.6724720  30.1620269  33.6046576  66.7147636  30.8811998  33.3308721
  67.5726986  29.2195606  34.5709872  68.4725904  28.8825536  34.8819780
  66.3888645  28.8476372  35.2961922  65.5623627  28.9915943  34.6002984
  66.4893770  27.4386382  35.7782817  67.3386049  27.4500084  36.4614964
  65.1120901  26.8507814  36.3387537  65.3051996  25.8516765  36.7294002
  64.7404146  27.4048734  37.2006941  64.3228531  26.8294859  35.5872560
  66.7512131  26.6300225  34.6495295  67.7000618  26.4843273  34.6574497
  66.1982965  29.9184656  36.3817596  66.4153290  29.5143676  37.5463748
  65.8666372  31.1543798  36.0735536  65.7356739  31.3498497  35.0913429
  65.4976988  32.1553326  37.0533419  66.4247608  32.2687078  37.6153040
  65.3374100  33.5035229  36.3781834  64.3987751  33.5747838  35.8286476
  65.3243017  34.2238927  37.1961045  66.3887167  34.0257430  35.3857994
  67.4934292  34.7343540  35.9164023  67.5844765  34.9398184  36.9727659
  68.4854889  35.2453804  35.0565958  69.2905140  35.8136654  35.4986191
  68.4321404  35.0455832  33.6709952  69.4209337  35.5276895  32.8432322
  69.5613909  34.9208617  32.1127319  67.3051500  34.4432425  33.1103992
  67.1603060  34.3159890  32.0477486  66.3241339  33.9108539  33.9851308
  65.4385805  33.4489250  33.5742497  64.3780661  31.6754055  38.0228090
  63.4855843  30.9261847  37.6676774  64.5385838  32.0610213  39.3029046
  65.3264761  32.6538897  39.5216346  63.5483885  31.9554877  40.3781605
  62.9611826  31.0919452  40.0657558  64.2982626  31.6640067  41.6618299
  64.9905396  30.8279824  41.5622473  64.8141956  32.6009250  41.8718624
  63.5110998  31.3504863  42.7713776  63.0640030  30.5235982  42.5765514
  62.6696062  33.2222986  40.5488300  63.0165625  34.2817807  40.0088596
  61.6026497  33.1646395  41.3306093  61.4024591  32.2947550  41.8031836
  60.7266092  34.3145943  41.5909624  60.2141905  34.7193933  40.7182312
  59.5677042  34.0707135  42.5585508  58.9649916  33.1875324  42.3468304
  60.0466919  33.9504194  43.5302544  58.6360312  35.2656913  42.7162695
  57.6893377  35.5386972  41.7127991  57.6531553  34.9554110  40.8045769
  56.9340420  36.7464662  41.7936039  56.2450647  37.0010567  41.0018301
  57.1943140  37.7194858  42.8092480  56.4286375  38.8333392  42.8315496
  55.4954243  38.6553478  42.6935863  58.0775309  37.4240494  43.7808084
  58.2603025  38.0388951  44.6496916  58.8646984  36.2176967  43.7087870
  59.6471596  36.0303593  44.4292545  61.5386534  35.4989839  42.0226765
  61.4517879  36.5059209  41.3480711  62.4049377  35.3639674  43.0595493
  62.2993708  34.5263720  43.6139774  63.2752228  36.4743519  43.4859371
  62.6521683  37.2337937  43.9583397  64.2359161  35.9278989  44.5516634
  63.6787939  35.4462028  45.3552055  65.2569342  34.8993301  44.1444778
  65.9652758  35.4627728  43.5371256  65.7824373  34.4454622  44.9846983
  64.7261381  34.1910362  43.5083342  64.7619295  36.9717836  45.2566481
  64.0407562  37.1413112  45.8671999  64.0778542  37.2585487  42.4063730
  64.1037607  38.4803247  42.4625826  64.6647263  36.5573025  41.4144087
  64.5301485  35.5572367  41.3711834  65.3173065  37.2648644  40.3019667
  65.8610582  38.0733943  40.7905579  66.2564659  36.3414788  39.5154381
  65.6642532  35.7714200  38.7996054  66.9562721  36.9175982  38.9100814
  67.0126915  35.3553343  40.4224253  66.9064379  34.1331530  40.1498938
  67.7403259  35.8020949  41.3475561  64.2525101  37.9696870  39.3795490
  64.6282864  39.0059280  38.7964559  63.1471777  37.3383927  38.9766812
  63.0250025  36.5259790  39.5641851  62.0370865  37.8427744  38.2051182
  62.2723484  38.0749536  37.1664429  60.9463596  36.7721534  38.1282330
  61.2032461  35.9701419  37.4362135  60.7574892  36.2526131  39.0676498
  59.7013569  37.4226189  37.6214075  59.5058870  37.8097463  36.2553453
  60.3599215  37.8394961  35.5949378  58.2926321  38.3246446  35.8021188
  58.1331778  38.6134243  34.7737312  57.2330570  38.4820199  36.6365147
  56.3085699  38.9589810  36.3462830  57.3385143  38.0817819  37.9767799
  56.4593220  38.2548952  38.5796523  58.5316992  37.4912214  38.4808207
  58.5849094  37.1026444  39.4870901  61.4976740  39.1670227  38.8055420
  61.3351822  40.1726055  38.1028724  61.3439560  39.1037154  40.1090002
  61.5560818  38.2732916  40.6433201  60.7884884  40.2182198  40.8095217
  59.8733044  40.3214788  40.2265310  60.4654121  39.7604632  42.2641373
  59.8372221  38.8707066  42.2215796  61.4123917  39.5271945  42.7508831
  59.5964241  40.8114052  43.0178928  58.8010120  41.2533951  42.4178362
  59.1265249  40.2665710  43.8367033  60.3274488  41.9633007  43.7454653
  61.5504742  41.8757772  43.8982248  59.6405315  42.9986477  44.2181492
  60.0877285  43.6538744  44.8432827  58.6475945  42.9929924  44.0333939
  61.6900253  41.4066124  40.7633114  61.1757612  42.4526119  40.4421806
  63.0547667  41.2380934  40.9581995  63.4028292  40.3032541  41.1164093
  64.0019941  42.2990036  40.7151175  63.6628675  43.0519962  41.4265203
  65.4476500  41.8136311  41.0994911  65.5743217  40.7892275  40.7492638
  66.1278009  42.5387287  40.6525803  65.6699944  41.7277098  42.6439953
  65.6333590  42.7556610  43.0046606  64.7829390  41.2185812  43.0208540
  67.0129442  40.9736633  42.9569101  66.9455957  39.9521160  42.5827312
  67.8802586  41.4927912  42.5490189  67.0821047  40.8465004  44.5695543
  67.0248270  41.8435001  45.0063801  66.1549950  40.3734541  44.8932838
  68.3855677  40.1858091  44.9499989  69.1681147  40.7761192  44.7065544
  68.4432840  40.0904131  45.9538269  68.5159016  39.2745471  44.5344114
  63.9741659  42.8293419  39.2714262  64.0480423  44.0231085  39.0913463
  63.8426161  41.9427061  38.2615566  63.7789106  40.9438896  38.3972454
  63.7736273  42.4771214  36.8725944  64.7125530  42.9829168  36.6474605
  63.6491203  41.2187958  35.8927846  64.0767145  41.4557695  34.9185634
  64.1004229  40.3071976  36.2844682  62.6222086  41.0284328  35.5808306
  62.5967073  43.3980989  36.6647577  62.7667999  44.5127106  36.1545753
  61.3810301  43.0436754  37.0869040  61.2649965  42.1405268  37.5238895
  60.1398325  43.8459158  37.0009446  60.0000238  44.2245007  35.9884095
  58.9179611  43.0341053  37.5359631  59.1012335  42.6479816  38.5386753
  57.6501894  43.8831854  37.5290775  56.9423008  43.2027102  38.0023098
  57.6268530  44.6656561  38.2875657  57.4036026  44.3329573  36.5673065
  58.6271906  41.8933773  36.5707612  57.6385069  41.4536428  36.7020226
  58.7001562  42.3357582  35.5772376  59.3713427  41.1134291  36.7320561
  60.2418900  45.0876951  37.9088759  59.8323536  46.2033033  37.4822760
  60.7388306  44.9867296  39.1620898  61.0414982  44.0715265  39.4635844
  60.8297157  46.0440683  40.0934124  59.9132586  46.6184807  40.2285337
  61.4007759  45.4549122  41.3982153  60.7700968  44.6779966  41.8303633
  62.3200750  44.9105740  41.1821365  61.7270613  46.5110016  42.4875021
  60.8407068  47.1489668  43.0923033  63.0168915  46.6989374  42.7453899
  63.1779099  47.3182964  43.5267830  63.7684536  46.1135626  42.4098396
  61.8047380  47.1025848  39.5396948  61.6651487  48.2879496  39.7644162
  62.8033018  46.6633415  38.6982083  62.9207516  45.6630707  38.6223221
  63.7171745  47.5689745  37.9265356  64.0998077  48.3173895  38.6204910
  64.9433661  46.8872213  37.3743534  64.7778606  45.9681511  36.8121982
  65.4413986  47.5562763  36.6726184  65.9931278  46.5116835  38.4193420
  66.2039423  47.3808622  39.0423894  65.6460810  45.7473373  39.1146374
  67.3234034  45.9453869  37.8362131  67.7801466  46.7224407  37.2232938
  68.0049944  45.6954193  38.6492634  67.1518087  44.8230886  36.8596125
  66.4503050  44.0954304  37.2676659  66.6530561  45.3347206  36.0364628
  68.4211206  44.2010689  36.5215564  69.1884995  44.8287058  36.3284206
  68.6761332  43.7133265  37.3684216  68.3234501  43.4771919  35.8240151
  62.9488993  48.3134127  36.8385458  62.9141569  49.5490980  36.8910646
  62.2817230  47.5843382  35.9273624  62.4485826  46.5896606  35.9809899
  61.4535475  48.1992674  34.8887110  62.0910788  48.7930250  34.2336440
  60.7594776  47.0695353  34.1114211  61.5951443  46.4489031  33.7880349
  60.0391722  46.5288639  34.7253656  59.9719858  47.4901581  32.9105377
  59.2403460  48.2156658  33.2661343  60.7449722  48.0761147  31.7633796
  61.6047668  47.5396109  31.3621068  60.0080872  48.1378365  30.9625697
  60.9593010  49.1160011  32.0099521  59.1657400  46.2788010  32.3852968
  58.6260605  46.5515804  31.4784145  59.8481560  45.4824734  32.0881820
  58.6300182  45.8584452  33.2364154  60.3205681  49.1723442  35.4709458
  60.0319862  50.2285147  34.9406815  59.6921396  48.7568569  36.5847611
  59.8289442  47.8189230  36.9335794  58.8841486  49.7436047  37.3319411
  58.1270409  50.1844740  36.6834641  58.2268953  49.0046358  38.4870362
  58.9479351  48.4464502  39.0842247  57.6225185  49.7287703  39.0333486
  57.1956015  47.9921341  37.9702854  57.7302408  47.3293352  37.2898722
  56.8424749  47.0717669  39.2262268  57.7515554  46.6712618  39.6748543
  56.2960100  47.6735401  39.9524140  56.1982584  46.2649918  38.8766623
  55.9573078  48.6272287  37.4036241  56.1410093  49.1593790  36.4702582
  55.1466656  47.9267120  37.2030306  55.5410051  49.2943764  38.1584144
  59.6638155  51.0522127  37.6881313  59.1814518  52.1188068  37.3339772
  60.8126020  50.9249544  38.3109069  60.9738111  49.9526262  38.5315752
  61.6560268  52.0284986  38.7330294  61.0360575  52.6799011  39.3489981
  62.8110075  51.7108154  39.6138763  63.5385084  51.1833906  38.9968920
  63.3069038  52.9448795  40.4127216  63.9044237  53.6158848  39.7956085
  62.4830580  53.4440136  40.9228611  64.0559721  52.6535177  41.1490011
  62.4346590  50.8349705  40.6323671  62.0477009  50.0305557  40.2791071
  62.1737146  52.7950668  37.5271201  62.1112537  54.0518236  37.5709510
  62.4121904  52.2562218  36.3481450  62.4609184  51.2474155  36.3422394
  62.7081919  53.0069542  35.1068449  63.5200071  53.7162971  35.2677608
  63.3651543  52.1218443  34.0732050  62.6511145  51.4273930  33.6305070
  63.7259007  52.7289295  33.2428932  64.1110277  51.4651203  34.5209622
  61.5600586  53.8060093  34.4506264  61.8209791  54.8636341  33.8620353
  60.2870798  53.4557676  34.7535229  60.2435064  52.5373697  35.1715565
  59.0245914  54.0956116  34.2803645  59.2683601  54.7242165  33.4238982
  57.9848051  53.0931473  33.7837029  57.0355415  53.5779333  33.5557055
  58.4354210  52.5738287  32.9379177  57.6027822  52.0831156  34.7011137
  58.3529234  51.4890099  34.7781062  58.3396387  55.1431227  35.1740265
  57.4665880  55.8066082  34.6461439  58.8239431  55.4923391  36.3695979
  59.6082258  54.9492788  36.7013979  58.5975122  56.6945505  37.1953273
  57.5401926  56.7762566  37.4473119  59.5028448  56.6951180  38.4416366
  60.5564308  56.5942478  38.1810808  59.4204950  57.6379108  38.9824390
  59.2036200  55.5956459  39.4738126  58.9593124  54.6679306  38.9563608
  60.3935623  55.4641819  40.4320002  61.3030052  55.2670479  39.8644161
  60.5679178  56.4203835  40.9253407  60.0361204  54.6617460  41.0773182
  57.9188633  56.0570621  40.2238321  57.1134520  56.3390779  39.5456839
  57.6505947  55.2947426  40.9552717  58.1449127  56.9741726  40.7678032
  58.9129066  57.9967356  36.5101480  58.1533718  58.9626360  36.6768146
  59.9412584  58.0740261  35.7744908  59.1520166  29.8122406  40.4878902
  62.2304583  37.1732521  47.6614761  39.4171119  65.5468416  60.8706474
  71.7216682  38.3923101  35.4963827  84.7330856  18.1519604   4.7914228
  34.9918962  81.4976597  48.1090260  40.6834364  38.1841278  31.0706687
  11.3120222  52.1022367  68.4793615  55.7077551  22.2717953  51.9934940
  56.0460997  21.3908124  51.8334198  54.8594284  22.2867393  51.5503836
  13.2473028  51.0666132  63.7365484  14.0130186  51.4898777  63.3482742
  12.9720008  50.4235983  63.0831194  70.8253574  79.0610790  18.8683116
  70.9353065  78.7160778  19.7543812  70.7871675  80.0105000  18.9839745
  51.9011688  20.6251287  61.6745424  51.8782711  20.0142264  60.9379959
  52.3597813  20.1487803  62.3666382  65.2222919  19.6403122  20.6636620
  64.7726345  19.1637993  19.9658275  65.9603405  20.0651097  20.2265525
  15.2364922  34.0664697  28.9118528  16.1314046  34.3522239  29.0954518
  14.6888161  34.6247387  29.4637752  16.0671651  64.1153336  10.4951906
  15.4303324  63.5752773  10.9631801  15.5505025  64.5764971   9.8344189
  17.7258706   4.2073917  29.0997744  17.2910416   3.9809078  28.2776666
  17.7237058   5.1644492  29.1161275  32.9500151  72.1037912  13.1209993
  33.6055684  71.5167713  13.4976780  33.4308624  72.6122904  12.4679685
  83.3100510  61.9417572   4.6894050  83.0724144  62.8678179   4.7360581
  82.5190163  61.5072727   4.3704620  74.6101952  11.7464268  62.4362946
  75.3496313  11.1501241  62.5541544  74.8024273  12.2079349  61.6200304
  84.4732857  13.4557033  43.8108015  84.1729355  13.2893276  44.7042990
  83.7527752  13.9345741  43.4011889  58.5929585   4.5101318   1.8687853
  59.1612816   4.0003964   2.4461995  58.7981129   4.1925216   0.9894293
   5.6268412  25.2503252  17.6102567   5.8476353  24.3376374  17.4245596
   6.4628720  25.7138300  17.5607932  14.1630805  73.1336021   9.0472132
  13.7380970  72.3635530   9.4249004  15.0037134  72.8090382   8.7243694
  30.2944541  38.5244298  35.9483767  30.1722097  38.1331515  36.8133569
  31.2391877  38.4857225  35.7993364  56.9643116  61.9626904  21.5442276
  56.1593390  61.8564177  22.0511436  57.4661446  61.1672306  21.7220950
  43.3095646   9.5473707  36.5193820  43.4602308  10.3781235  36.9703603
  44.1597843   9.3222618  36.1416459  85.0366783  12.3061311  24.8545694
  84.9685764  12.3661816  23.9016843  85.9191990  11.9700599  25.0109172
  45.1537514  54.2672825  31.1191630  44.9729347  53.8167715  31.9441319
  45.7120657  53.6609173  30.6324983  73.3811331  31.2104034   9.7372812
  73.2228756  30.7672191  10.5708122  74.2701864  31.5564775   9.8150378
  77.7162790  55.5342007   3.2580820  77.7700043  55.0254679   4.0671155
  77.4666071  54.8958921   2.5899065  56.9999981  67.7625513  57.6806259
  56.1145639  67.5144720  57.9465008  57.4937153  66.9426823  57.6975584
  30.9092736  31.3244677  30.4628992  30.4983854  30.4842854  30.6666112
  31.2338018  31.2217164  29.5682740  82.0739555  64.9599600  43.9908409
  82.6327991  64.2898035  44.3843126  82.1490955  65.7106304  44.5799732
  55.3713179  21.1934280  38.7656140  55.9769487  21.6345382  38.1699085
  54.5157576  21.2808061  38.3453584  64.9068785  60.3341389  40.2779102
  65.3218603  60.9310913  39.6552777  65.4268694  59.5323133  40.2239418
  72.5470018  49.7461891   8.1260502  72.8687716  48.9021492   7.8093565
  71.8536711  49.5207739   8.7462997  67.8961086  63.1440735  28.1591582
  66.9840240  62.9107761  28.3320904  68.3984470  62.6336288  28.7942481
  39.1758585   3.1791326  45.2911854  39.3712354   2.6798177  46.0841227
  39.9457788   3.0573255  44.7356510  65.0105667  76.7092657  10.2325726
  64.2413473  76.9724035  10.7378376  65.6986332  76.5917587  10.8875442
  12.2713184  80.2464771  37.1217036  11.7742443  80.8797646  36.6039252
  11.6139412  79.6262360  37.4369645  24.4347954  72.0969296  13.9783633
  23.5082197  71.8854475  14.0922153  24.7046804  72.4540377  14.8244536
  62.6024151  63.7698555   4.3890694  62.7922964  62.8973913   4.7340104
  63.1126213  64.3620825   4.9415043  72.7234411  28.6399055  70.2550650
  73.2180548  29.1164303  69.5883465  72.1821785  29.3083405  70.6751394
  12.0689571  55.3532696  19.0451312  12.4406219  54.5421267  19.3917501
  12.6751280  56.0362577  19.3320394  83.2042313  44.5923853   5.7700258
  83.6769867  44.6260786   4.9384016  83.6279869  45.2566862   6.3135093
  36.0753655  62.0515490   8.1773949  35.4816389  61.8419170   8.8983488
  35.7265663  61.5648174   7.4306262  26.5953684  36.4540362  10.1500380
  26.8883538  35.5450749  10.0853693  26.0792494  36.4825821  10.9556663
  29.2818356  67.2481251  17.8554773  28.7491584  67.7187967  17.2144175
  30.1604414  67.2382021  17.4757588  69.7915886  81.2266973  24.8257589
  69.1543577  81.8421179  25.1882863  69.6296618  81.2421645  23.8824821
  86.3338947  72.0749378  15.6166053  86.1536884  71.1651468  15.3798723
  85.4722500  72.4910784  15.6416523   2.1232051   1.6447558  11.5606868
   2.4510074   0.7520380  11.4519083   2.7299377   2.0487633  12.1810770
  85.8828831  77.2315168  36.7296219  85.5718994  77.7839661  36.0124588
  86.0381126  77.8408194  37.4513459  72.9950380  80.1820660   7.5121176
  73.8487339  80.2389431   7.9413015  73.0602312  80.7816219   6.7688072
  16.6601670  69.8612022  14.7420120  15.8079815  70.0813866  15.1182163
  16.4714038  69.6526527  13.8270760  44.9442816  50.1336622  71.0234594
  44.8680687  49.3548584  70.4722023  45.3795099  50.7794237  70.4668665
  63.1919813  77.5237656  62.3060989  62.6550388  78.3064747  62.1824455
  63.3368492  77.4795532  63.2512379  23.6697865  13.5124791  39.0236425
  22.7608085  13.4255862  38.7365198  23.6309218  13.4139979  39.9749684
   2.6830247  71.5756559   6.2678528   2.3406897  71.3416338   7.1305645
   2.9714465  72.4834156   6.3628036  48.8870096  43.3915710  58.4466124
  49.7301102  43.3451796  58.8974619  48.7874460  42.5327110  58.0359125
  12.0033777   1.2182409  58.3829260  12.9054725   1.4053297  58.1232071
  11.7159104   2.0100266  58.8375378  58.9718962  17.1681702   9.4565862
  58.6830282  17.1762443  10.3691232  58.1650496  17.0711493   8.9508021
  33.5651588  21.3980603  12.7965796  34.2136407  20.7166624  12.9737854
  33.9720488  22.2042751  13.1138957  73.8483715  58.4738016   6.4100367
  74.4132805  59.2022085   6.6679776  73.2720852  58.8429689   5.7408309
  60.8954382  60.3779411   6.6987777  61.1611366  59.9482059   5.8857816
  60.1294231  60.8978701   6.4556038  34.5367146  10.6250632  33.9282322
  33.7317014  10.9683180  34.3159962  34.7754455   9.8856014  34.4871926
  63.6189556  74.0695381  15.6721067  62.9121637  73.5677719  15.2660227
  63.5520649  73.8657045  16.6049576  48.3853769  45.2390623  56.6736078
  49.1520977  45.7661200  56.4486980  48.7011909  44.6291733  57.3403358
  31.6275167   2.7247745  15.4298079  32.1842194   2.8019482  16.2046349
  31.7458034   3.5539001  14.9663532  28.3136225  14.0414226  19.2979360
  28.4592867  14.8006666  18.7335229  28.1008077  13.3306849  18.6931276
  22.2051430  11.5115058  51.2101507  22.6532054  10.9733450  51.8627214
  21.4766550  10.9676647  50.9105253  75.5426931  44.2345285  25.5046344
  74.9766922  44.5359707  24.7939968  76.0335159  45.0134039  25.7667065
   6.9583356  74.1361952  31.7263842   7.1867228  73.9855051  32.6436424
   7.3601025  73.4055090  31.2563682  50.8217573  79.9040604  58.9565420
  51.1473274  80.8036518  58.9254141  49.8766279  79.9868679  58.8296461
  12.2035897  37.9504609  18.9662635  12.6372790  37.4928808  18.2460093
  12.9051375  38.4394217  19.3963552  28.2420635  39.0018725  12.2996533
  28.6846495  38.5318756  11.5929317  28.2885289  38.4074426  13.0484700
  31.2072064   0.3734493  21.2206316  30.8317846  -0.1249218  21.9465160
  31.5474585   1.1701393  21.6277575  21.6990280   1.1861687  14.9515176
  21.1594319   1.9766682  14.9381661  22.5904894   1.5069665  15.0879514
  78.0335045  41.5059805  63.1827021  78.5979605  40.9504223  63.7202644
  78.0923653  42.3709679  63.5883617   0.8391553  45.2585268  11.4843750
   1.5319219  45.1943207  10.8269680   0.4318576  44.3923140  11.4885008
  35.2034879  34.6155739   3.6968768  35.9029889  35.0915694   4.1444930
  34.6778035  35.2983618   3.2801187  78.4788465  15.0650525  29.6009207
  79.2940235  14.6926928  29.2646670  78.2877588  15.7946622  29.0115237
  28.3963394  32.2809100  12.2969174  29.2687201  31.9810510  12.5523949
  28.0826044  31.6131449  11.6870868  24.3763757  43.3696985   1.9708073
  24.8037696  44.2157507   1.8375444  25.0913668  42.7337408   1.9467300
  20.1778626  78.6733341   7.4225461  20.1803255  78.9143467   8.3489048
  20.1026535  77.7190924   7.4235249  80.5752087  44.9292183  70.1390123
  80.5938911  45.0527906  71.0880184  80.6023884  45.8166647  69.7813368
  12.2185361  31.5433836  36.6153431  12.5049007  32.4362206  36.8078756
  12.6603830  31.3216400  35.7956886  49.9634409  39.0366220  13.8021851
  49.7764158  39.5152950  14.6097267  49.7669601  38.1240034  14.0137374
  81.8079090  69.0281153  29.0178823  81.3764858  68.4730816  28.3682370
  82.2697449  69.6878195  28.5004544  53.1030893  60.2731085  44.2310619
  53.3585024  60.1319885  43.3194256  53.8684464  60.0033998  44.7387218
   8.3102316  63.4738588   1.3208641   7.9370749  63.1208181   0.5131852
   9.1900867  63.0991650   1.3619944  71.1815214  49.3837643  50.9153700
  71.7320633  49.3268394  50.1344156  71.0400295  48.4735298  51.1755419
  38.0555677  40.8122635  27.2572732  38.3600044  41.4342403  26.5964437
  38.8527608  40.5295420  27.7053618  21.1551046   0.2151080  17.5567317
  21.2370205   0.0735256  16.6136110  20.3592515  -0.2570175  17.8015709
  45.2997732  57.5906134  47.2762918  46.1495256  57.7730322  46.8751955
  45.3523016  56.6724062  47.5415611  48.5598516  20.7469463  45.7851076
  48.5640287  19.9786639  46.3560343  48.5212994  20.3867412  44.8991108
  73.7656593  51.1675215  26.8147874  74.4567442  50.5580282  27.0739341
  74.2339325  51.9318676  26.4790368  77.4048948  49.0758753  22.1125960
  76.5830278  48.9736128  21.6326952  78.0836678  48.8543224  21.4750862
  65.9335184  47.5166941   7.8488564  66.1799049  48.3411407   8.2681519
  65.4377651  47.7809238   7.0738459  25.2777576  44.8198557  66.7473507
  25.3960204  45.4118919  66.0045576  24.5619202  44.2425156  66.4818621
  82.1683311  60.7274055   9.1445613  81.3165760  61.1302423   9.3132603
  82.7964401  61.4418268   9.2509139   1.0599397  50.7002878  23.7569070
   1.7186797  50.2284718  23.2473159   1.3282433  50.5773354  24.6674728
  81.6045570  55.4080057  18.0793846  81.8605137  56.0374403  17.4052000
  81.9299889  55.7863235  18.8962066  73.8273048  54.2096281  18.6677134
  74.6645784  54.3955135  18.2426763  73.5096836  53.4171724  18.2348633
  85.7887511  13.7406969  15.8906388  86.3669214  13.6484957  15.1333749
  86.3694010  13.6566114  16.6469514  40.1470089   1.5445615  36.6849327
  39.8696446   2.0464616  35.9185123  39.3302417   1.2386431  37.0793128
  65.7510757  10.4342294   4.1294548  65.7276106  11.0837412   3.4267348
  65.0921631  10.7346690   4.7553957  61.2418085   0.6060505  45.0602293
  61.7604214   0.2555847  44.3360424  61.6748196   1.4285183  45.2888680
  13.9381647  73.2547283  49.8372507  14.4067216  74.0783930  49.7021294
  14.5955312  72.5767660  49.6808147  47.8819752  36.0409474   1.0339147
  48.3786917  36.7845726   0.6925619  48.4283495  35.2790761   0.8408943
  65.9377766  71.8964815  55.5745649  65.5755615  72.7665520  55.7419252
  65.2258301  71.2947607  55.7920504  35.3454280   0.7552578  39.2621231
  34.9764538   1.2072578  38.5033178  35.4612160  -0.1487239  38.9694762
  43.7970877  77.0669031  69.5331717  44.2341042  76.6545963  70.2783203
  43.3263159  76.3514376  69.1057158   0.8900066  61.6788292  36.2408876
   0.6876810  61.9564438  35.3474522   0.1706890  61.0937548  36.4785910
  69.6083164  23.9955473  62.5379229  68.9811039  23.8863158  61.8231487
  70.0915480  24.7906470  62.3131275  27.5127363  42.7180052  18.3963978
  27.1925211  43.5988474  18.2019508  26.9330978  42.3997927  19.0884900
  58.8028288  68.7816525  49.1938496  58.0910730  68.2136917  49.4889069
  58.9578009  68.5196495  48.2863426  55.6985331   3.1350961  36.0034680
  55.3728771   3.9745006  35.6785321  56.6231394   3.1248924  35.7560205
   8.0269855  49.7051716  18.1951594   7.6882833  50.4457426  18.6982191
   7.2957420  49.4401503  17.6372361  70.3203773  61.0776901  34.0929914
  69.6194839  61.4974165  33.5941863  70.3826475  61.5919924  34.8978829
   3.7919721  48.0812120  26.1021757   2.9679963  48.4734869  26.3910007
   3.5570842  47.1876764  25.8518720  21.1864614   9.4291937   9.1192323
  20.7012415   9.0024388   9.8254007  21.9817829   8.9050847   9.0243226
  74.4466591  33.2583928  25.5852818  73.9747620  32.8546476  26.3136601
  75.2687740  33.5610962  25.9709406  14.1537404  23.9874959  65.7346058
  13.6519432  23.4892535  65.0894833  14.2129934  24.8679924  65.3638697
  11.7877042  69.9669075  42.3014212  12.5470078  70.4646730  41.9982386
  11.8248522  70.0309277  43.2557535  18.6802447   7.1921962  58.1066132
  17.9212642   7.0425665  58.6703444  18.4131622   7.9083771  57.5304365
  21.5792418  63.7689114   7.8403336  22.0150661  63.6600065   8.6855727
  20.8146811  64.3115616   8.0332381  33.8655424  18.8575590  67.2134352
  34.6755409  18.7855589  67.7183580  33.8137698  19.7829843  66.9743967
  79.7615480  25.9453773  40.6796741  79.0764713  25.2901745  40.8123922
  80.4355717  25.7204437  41.3210249  19.2170846  28.0457568  17.5598717
  18.4428823  28.3270025  17.0722818  19.9546206  28.2965732  17.0036650
  77.5835276   7.9208434  31.9217253  77.4443579   7.2392273  32.5791931
  77.0409679   8.6522716  32.2164726  56.7923069  47.8616190   7.6758516
  56.5912056  48.7647581   7.4306369  57.3363686  47.5344133   6.9594961
  51.6504335  65.5372906  64.0227938  52.5765467  65.4482222  64.2477703
  51.4080286  64.6837616  63.6636925  78.1605148  60.1239777  26.8540335
  77.7018070  60.9465170  27.0250463  79.0134716  60.3919983  26.5121841
  75.5264664  19.4804752   2.6472342  76.2422895  20.1112199   2.5698474
  75.8622408  18.6851954   2.2336918  49.6631384  34.6534896  67.4179554
  48.9548874  35.2080917  67.0908070  49.5979500  33.8512588  66.8998718
   3.8728684  42.9174805  24.0697742   4.2106369  42.0291710  23.9555573
   4.2121440  43.4013891  23.3168077  25.4522538  23.1246185  14.2650211
  24.9805474  23.7038183  14.8635626  24.7954416  22.8590226  13.6213708
  65.2177525  62.4792624  27.9124856  64.9565077  62.8155279  27.0552182
  64.9434996  61.5622330  27.9037881  41.9220829  34.9395967  67.8099442
  42.5995493  34.7686911  68.4642076  41.9445372  34.1737175  67.2362185
  65.7901812  43.1540251  60.8960581  66.1444950  43.3307028  60.0245762
  65.1395130  42.4662638  60.7551575  34.3820786  30.7447672  57.6202345
  33.7770677  31.4806080  57.7136755  33.8341784  29.9682260  57.7343464
  14.1461051  58.5031366  24.2493510  14.4063294  59.1737556  23.6178565
  14.6246374  58.7271738  25.0475025  80.4280186  43.1941366   8.8436770
  80.1656437  43.5196304   7.9826057  81.2787437  43.6021757   9.0049434
   3.8389617  77.1362019  37.0625210   4.4096696  77.3997402  36.3406682
   3.0624944  76.7754364  36.6345263  70.8486986  42.9620218  20.4226542
  70.9369326  42.0719051  20.7634568  71.5862560  43.4385633  20.8036375
  86.3421059  63.3656025   0.6556254  85.5771351  63.8416433   0.9788039
  85.9775543  62.6677513   0.1112581  47.0699644  20.6994891  19.5392430
  47.1811771  20.0089431  18.8857841  47.1671438  21.5139842  19.0459001
  65.2039814  65.1623154   8.3725303  65.8501768  64.8731375   9.0167695
  64.3783855  65.1878738   8.8562369  46.5825462  67.9236317  17.1127880
  46.7572117  68.7448692  16.6531193  47.3719597  67.7665424  17.6308417
  57.9037619  15.9571350  64.4301891  58.4227943  15.1732862  64.6102428
  57.2220850  15.9525871  65.1021528  76.9799089  55.7092190  24.4918060
  76.1379814  55.7132673  24.0364218  77.5972462  56.0729647  23.8571286
  84.0704536  62.7712727   8.8738871  84.6317863  62.8356028   9.6465421
  83.8067436  63.6735964   8.6936295  62.5157070   3.4713489  44.8910761
  62.7175045   4.1897070  44.2915154  63.3077860   2.9339299  44.8961401
  21.7246008  14.9849880   4.3856451  20.9129381  14.9932921   4.8929608
  21.9685960  14.0605724   4.3392402  10.1096237  75.4374790  49.7432947
   9.9332470  74.5955133  50.1630735   9.7264457  75.3546762  48.8700581
  73.0327988  29.2039990  22.8158545  72.8246307  30.0514078  22.4224091
  73.2261848  28.6350369  22.0707941   9.5632213  50.7453442  23.9781499
   9.8086566  51.0068607  24.8656178   9.9624181  49.8829365  23.8635516
   2.7107981  56.1818218  35.8568907   3.4514397  55.5969524  35.6968617
   2.2088130  56.1610556  35.0421453  13.7682104  63.6937094   3.4017959
  13.2606530  64.5047569   3.4304166  13.1622970  63.0208969   3.7123179
  20.3559208  67.4422741  11.6730285  19.5497227  67.0220804  11.9725478
  20.2804351  68.3476162  11.9745123  36.5101385  18.7047184  68.4160233
  37.2280312  19.0511918  68.9459467  36.4305949  17.7906573  68.6887789
   5.7253516  60.3913546   9.6079010   5.4270428  60.0860453   8.7511456
   6.5817940  59.9799204   9.7239101  13.0679178   0.4854613  19.3740380
  12.5902343   1.1289413  19.8974741  13.9712715   0.5472644  19.6844625
  17.2146308  22.6999021  11.7766190  17.7266741  23.4930229  11.9347417
  17.7691448  22.1663356  11.2073612  49.4800615  55.1885271  59.9103355
  50.3042936  54.8040581  59.6119118  48.8030100  54.6783161  59.4659090
  40.7327127  77.5843525  54.9082041  41.4868689  77.0061541  54.7934723
  40.1037598  77.0617723  55.4057598  83.8659954  75.1126957  14.8188853
  84.3703079  74.8943043  14.0351760  83.9471817  74.3406057  15.3788126
  72.8732252  80.3140545  21.7280626  73.6557770  80.1478863  21.2024856
  72.3084116  79.5593214  21.5619159   7.7825058  69.8953676  25.5165553
   6.8955332  70.0065327  25.1742792   8.3279371  69.7863817  24.7375441
  20.0632668  68.3206749   6.4418405  19.4254732  69.0340614   6.4648753
  20.9138489  68.7596941   6.4437830  26.3282657  18.2299709  17.2884560
  25.8190370  17.4710023  17.0040524  26.4597201  18.0923176  18.2265401
  56.9684458  25.8392596  65.9606123  56.0117626  25.8453679  65.9297562
  57.1859980  26.3427353  66.7451000  44.4962454  16.0849392  61.4271832
  43.9349747  15.3536212  61.6848326  44.1594648  16.8314636  61.9226789
  54.9212742   5.8905631  70.3205156  55.5695724   6.2302649  69.7036314
  55.1305199   4.9598628  70.3995466  15.5339050  55.7585001  42.5801754
  15.6414485  55.1177883  41.8772173  15.3977942  56.5906048  42.1270657
  20.8769798   6.2030786  36.8142271  20.5194116   5.3187287  36.8936181
  20.3485394   6.7298132  37.4138379  82.5280094  79.7040033  10.6325698
  81.7140865  79.8868179  10.1631665  82.8308868  80.5619526  10.9299409
  79.8846579  75.6386232  11.6556895  79.4878674  76.1814451  10.9744167
  80.5445480  76.2034273  12.0578945  13.9662135  10.8239830  20.0006866
  14.4828475  11.0542142  19.2284715  13.3179808  10.1983023  19.6773434
  61.2071705  67.0842695   3.4006763  61.8714476  66.4417744   3.1513426
  61.0078239  67.5501347   2.5886035   9.1586816  76.4711428  26.8412018
   8.9129436  75.5491543  26.9172192   8.6128837  76.8066359  26.1300206
   6.0195661   4.9385530   8.9905238   5.5794179   4.1904181   9.3940037
   6.6085237   5.2653068   9.6706659  76.8786287  42.0901728  66.9662857
  76.8749094  41.1350203  67.0287609  77.1706533  42.3854685  67.8286934
  17.4763715  78.4227467  49.0943193  16.7426395  78.1977034  49.6663523
  18.1083643  77.7160358  49.2261553  22.2555399  10.8153677  69.5496416
  22.4825501  11.1604810  68.6861610  22.7189326  11.3842571  70.1643467
  12.3493600  44.8874378  23.8878417  11.4467680  45.0744247  24.1458988
  12.7294731  44.4470882  24.6479964  18.9787495  39.5362306  51.8205738
  18.7928128  40.4012585  51.4553547  18.2984650  39.4037151  52.4807882
  79.0841770  44.8199511  44.8891735  79.2951345  44.0092373  44.4260597
  79.8970747  45.3249979  44.8703814  14.2813277   6.5373337  25.0584531
  15.0815368   6.9455105  25.3890443  14.5887721   5.8684504  24.4466472
  43.7207985   1.6343901  29.5882249  44.5964098   1.2929821  29.7698092
  43.3171988   0.9722927  29.0270066  23.8257504   4.9753410  21.3784409
  24.1376185   4.0765959  21.2724781  23.7058544   5.0775099  22.3225904
  44.7339201  52.1760702  60.2286339  44.7742462  52.8110838  60.9437323
  44.3016768  52.6457500  59.5153332  53.0018282  30.4650545  10.2778137
  52.1633959  30.9069037  10.1435375  53.2784510  30.2041411   9.3993855
  34.8979449  21.5624547  67.6041651  35.8198452  21.5161157  67.8575134
  34.4201398  21.2932611  68.3886862  30.5933404  17.6151037  53.0968285
  29.8888278  17.0165062  53.3449745  30.1962399  18.1967211  52.4485493
   6.1353618  67.7217293   6.5561444   5.5110770  68.3324432   6.1643112
   5.9079403  66.8718719   6.1789876  41.6346264  21.0786009  62.7354145
  42.2565699  21.2460780  62.0273447  42.1272564  21.2621665  63.5353231
  82.3816013  35.6600261  51.8651199  82.8364754  34.8926711  52.2122335
  82.2377872  35.4555774  50.9411335  64.0160036  32.5679231   3.0417004
  63.3717775  31.8647265   2.9597613  63.5033846  33.3725882   2.9644352
  65.4445076  27.1140862  28.6297655  66.2045097  26.8795633  28.0971956
  64.7539330  26.5196514  28.3365297  30.2486253  11.3373458  16.8598616
  30.9878302  10.7310033  16.8134105  30.5464458  12.1147251  16.3874042
  11.6592634  75.9244871  11.0518217  11.5839064  74.9703360  11.0394323
  12.4870217  76.1051702  10.6064010  71.3995409  54.6563625   7.5951159
  70.8369732  55.3606987   7.9170817  71.1275673  53.8857794   8.0935794
  15.2402270   2.2392526  17.6120114  14.2983246   2.3480520  17.4808049
  15.6219649   2.3951137  16.7481744  79.1433001   2.2371772  40.2337456
  78.7974501   1.6475838  40.9038210  78.5662985   2.1088347  39.4808650
  49.1089821  17.9099965   4.1401276  49.8789263  18.0023110   3.5789725
  48.4519100  18.4801996   3.7409329  11.6006029  49.6230030   9.5152187
  12.5332451  49.7911358   9.3805325  11.5758085  48.8730383  10.1095033
  37.7585840  35.7995462  68.1895494  37.3509192  36.5367961  67.7351236
  38.6363792  36.1104560  68.4110069  54.6750498  69.3721342  21.0470891
  54.1612196  68.6086845  21.3104415  54.3494463  70.0823402  21.6001058
   7.5053281  72.0499277   8.5415405   7.1729392  71.1523724   8.5297370
   7.9395270  72.1556950   7.6950675  45.3467321   4.3002132   8.4600300
  45.9555292   4.8648679   7.9838359  44.4836092   4.6726239   8.2795888
  19.5785856  50.5058241  19.9310601  19.3143427  51.1217451  20.6144691
  19.9047959  51.0601377  19.2221487  86.0014712  42.5749731  41.7053366
  85.7610192  41.8433428  41.1368895  85.7142257  43.3534622  41.2281799
  54.7574329  26.9676661  29.6844077  55.3739691  26.9070649  28.9547205
  54.7726011  27.8914404  29.9346924  77.3670673  11.3240743  63.3172321
  78.2466793  11.6843665  63.2045460  77.0074463  11.7998791  64.0659046
   4.3011105  35.9777522  23.2073832   5.0006080  36.3739848  23.7269330
   4.1703585  35.1147652  23.6003065  27.2899389  74.4537067   7.0701408
  26.8317962  73.7633753   7.5494933  26.6566634  74.7531176   6.4177996
  58.0242395  74.7361326  55.2035570  57.6730776  75.6167412  55.0714922
  57.2816229  74.2287874  55.5312061   8.2047379  41.5268517  69.9754810
   7.5228930  41.3816500  70.6314039   7.7280188  41.7934275  69.1894102
  68.0366611  75.3127527  30.2709246  68.4065056  75.9126520  30.9186625
  68.7626743  75.1254797  29.6758914  76.1252213  52.5001001  26.0591626
  76.6189337  51.9645214  25.4381609  75.7354403  53.1905890  25.5229473
  85.3574085  60.3356075   8.3902758  84.6440601  60.9689045   8.4696305
  85.5179310  60.2723932   7.4487519  73.4802151   8.4675342  16.6773987
  72.5412893   8.2814282  16.6809523  73.8928747   7.6148844  16.5397978
  22.0525336   3.9488387  67.5429773  21.6273785   3.8756073  68.3974457
  21.3459420   4.1893098  66.9437027   5.3560525  77.9166174  39.0888381
   4.7450233  77.5385761  38.4564137   4.9866939  77.6915646  39.9427438
  30.4377699  18.6211431  69.6361732  31.0530090  17.8994238  69.7659159
  30.7457447  19.3076968  70.2278042  29.6536851   3.2791027  19.0834236
  29.3081594   3.9146563  18.4565926  30.5446887   3.5794994  19.2626023
  13.2697690  35.6794000   9.4208521  13.6920714  36.1003494   8.6720562
  13.1387782  34.7726989   9.1434288  66.2632227  80.9321117   0.7475801
  66.6298485  80.0705624   0.9464660  66.2923813  81.4028931   1.5804911
   3.9423925  54.3988466  10.9915936   4.1268483  55.2312469  11.4267027
   3.9361432  53.7547159  11.6996121   3.9951631  61.4014244  40.2115488
   3.2585591  61.0086823  40.6799507   3.7181544  62.3017168  40.0413465
  31.7049193  15.2752614  60.0833988  30.7762170  15.5062246  60.1033640
  31.8726373  14.8829603  60.9402561   9.5188361  45.4544163  23.4481692
   9.6636295  46.3347912  23.1014657   8.5750282  45.3171778  23.3667779
  25.7348800  30.7895684  69.4381189  26.5474606  30.8319640  69.9422503
  25.1531458  30.2435231  69.9669409  58.2532263  68.4315109  35.9351730
  58.0380917  68.4273148  36.8678737  59.0667439  68.9328051  35.8792663
  12.5293696  65.6140137  17.8366101  12.6653314  66.2505817  18.5384130
  13.3598650  65.1417828  17.7773762  41.1526537  24.9427629  29.7235107
  41.9581413  24.5715308  30.0835156  40.5228233  24.2225790  29.7532511
  67.6896715  80.2045536  41.0864735  68.0632544  79.3977928  40.7317686
  68.2398701  80.9010506  40.7281399  49.4594669  18.9321184  58.7622070
  49.3140173  19.8771310  58.8072395  50.3801727  18.8199520  58.9987516
  86.8338585  42.7003860  53.7817049  86.5439606  43.2599688  54.5021629
  86.0479450  42.2208738  53.5196924  42.5230312   8.6725104  19.3535626
  42.9077435   9.0021700  18.5414362  42.2453260   7.7811319  19.1424775
  30.1238155  45.9221458  37.8055620  30.2371287  46.5246964  37.0704961
  30.3630304  46.4369106  38.5762930  77.1414137  47.0437431  14.3501639
  76.6856050  47.7358913  13.8712013  77.1281862  46.2929916  13.7565053
  23.0858707  72.7219152  10.0752723  22.9201484  71.8619490  10.4615700
  23.9990115  72.9099703  10.2921665  27.0643520  72.6489973  34.2929745
  26.6782093  71.7732620  34.3075252  26.3885784  73.2149601  34.6661305
  77.5506639  29.1665602  29.1169381  78.2104683  28.9809465  29.7850966
  77.0211077  29.8701096  29.4921947  84.0608311  75.6073761  10.8372092
  83.3518696  75.0639009  10.4933536  83.8810730  76.4819717  10.4922378
  66.9536448  77.8770161   5.1064539  67.2615814  78.7832069   5.0914729
  66.8704987  77.6370192   4.1835672  55.1118326  40.2379894  66.6259098
  54.7673082  40.2090168  65.7333326  55.8453512  39.6230555  66.6195917
  46.7355061   3.3919898  68.9107323  46.5917015   2.7783054  69.6311092
  46.9197130   2.8347653  68.1545591  17.0093822  17.7957201  23.9861512
  17.7913821  18.0688620  24.4658399  17.3322070  17.5591612  23.1166363
  41.5563774  13.3112025  64.8954391  40.9346533  12.6879728  64.5195770
  41.2197351  14.1696978  64.6387482  33.5035300  45.0523329   6.7565513
  33.4956884  44.4233131   7.4780089  34.4294834  45.1511955   6.5350372
  60.1572180  32.7538919  65.7003355  60.9696150  33.1401134  66.0275650
  59.5839024  33.5031700  65.5387020  68.2289028  35.4366684  64.6772003
  67.3112488  35.7089400  64.6815109  68.3706665  35.0586867  65.5451059
   2.4462774  36.6191483   4.2627656   2.5729138  36.9518518   3.3742255
   3.3289406  36.5765309   4.6306261  48.9201403  44.8483372   6.8291259
  48.5034275  45.5300522   7.3562378  49.5448494  44.4337845   7.4242014
  79.7337055  24.7894979  65.2337170  78.8152456  25.0572729  65.2026701
  79.9244452  24.6957779  66.1670256  45.3945398   1.6784973   8.5134155
  46.0507298   1.2761848   9.0824443  45.5703831   2.6176000   8.5716993
  43.2634211   2.8931442  50.1334524  43.7589455   2.3364356  50.7340860
  42.8065157   3.5123932  50.7026625  64.0402794  59.7486782  28.2404828
  63.1387043  59.9853373  28.4581685  64.4767761  59.6631908  29.0880656
  22.5943851  62.1685791  34.0735483  21.8588901  62.0082426  33.4823036
  22.2614217  62.8095102  34.7017002  22.0198035   0.9848495  29.2238998
  21.9263315   1.9148755  29.4301677  22.1945167   0.9645788  28.2829976
  27.8528833  40.9408808  70.0823545  28.4740758  40.2519751  70.3184891
  28.1140924  41.2070274  69.2007828  28.2562828  64.4336939  10.0607276
  28.9633846  65.0248766  10.3190804  27.4884820  64.9995470   9.9799532
  77.0082664  62.0544195  11.3823175  76.7347622  62.9711962  11.3515496
  76.3770771  61.5973854  10.8264804   2.1709226   8.1380129  49.0047836
   2.9476106   7.6115543  49.1940689   1.4678307   7.7127314  49.4957304
  30.7130003  30.3717184   8.3654380  31.0735917  29.4879246   8.2939380
  30.3974867  30.5736542   7.4845839  26.3901925   2.9174188  20.3872538
  27.2292089   2.4699453  20.2774835  25.7844949   2.2275779  20.6583333
  50.2066660   6.5800256  44.4449615  49.6514463   7.3300332  44.6581650
  49.7972441   6.1909437  43.6721611  42.5219917  20.7809806  58.8422203
  42.8901196  21.2695694  59.5784283  43.2852888  20.4522967  58.3672714
  76.1359787   6.3626802   7.8452611  76.2990284   5.4615128   7.5667953
  76.9992113   6.7761678   7.8358889  59.2143297  36.1327028  23.2379031
  58.2593441  36.1885333  23.2712173  59.4805527  36.8906355  22.7174282
  77.6728773  59.6755934  22.0211196  78.5895634  59.7813606  22.2755361
  77.2229052  59.4497013  22.8351998  20.4920435  32.4444103  63.0431128
  20.8404779  33.2880783  63.3312941  20.9123158  31.8032956  63.6163282
  51.3962460  38.8785720   1.5086088  51.2272072  39.6634936   0.9874965
  51.5632057  39.2085838   2.3914728  82.6381493  67.2622681  22.5366354
  82.9275990  66.4919138  22.0477509  83.3695221  67.4643660  23.1201434
  68.7543774  63.7552834  67.0502758  68.7280130  62.7984476  67.0523787
  67.8695488  64.0198183  67.3019266  36.1472845   0.7979493   2.9388693
  36.8395591   1.4255768   2.7313349  36.6013813  -0.0405091   3.0226222
  53.8203907  32.9249883  56.0021639  54.3904686  33.6885691  56.0926580
  54.1450548  32.3049617  56.6551495  83.1305122  62.5508642  65.4399490
  82.5236034  63.1701326  65.0344849  83.9766884  62.7464247  65.0374794
  28.8959789  43.0882263   9.5092082  29.2825890  43.8524532   9.9366653
  27.9549003  43.1815434   9.6571875  37.6448631  20.9437895   9.3422312
  36.7488933  21.2494278   9.2006135  38.0405259  20.9497118   8.4706533
  61.7754030  71.9428110  19.5086718  62.0717239  72.0826912  18.6093056
  61.4934063  71.0283041  19.5284402  52.8661060  50.3119612  68.8783693
  53.6226320  49.7684431  68.6581802  53.2250595  51.1939478  68.9757538
  81.0925007  43.7721443  59.7678661  81.4580250  42.8896809  59.8301888
  80.1805592  43.6360598  59.5108080   0.9482659  26.3037133  18.2772124
   0.2681745  25.6756520  18.5206175   0.5713457  26.7936516  17.5463748
   8.8485986  81.2876797  14.0958393   7.9474443  81.4355850  14.3826830
   8.8279974  80.4281902  13.6750233  26.0987449   2.2788987  33.6664200
  26.2372708   3.2205600  33.7679935  25.8528852   1.9772708  34.5409513
  15.0960600  75.4032469  25.9518147  14.7046459  76.1742496  26.3624096
  14.4259107  75.0888681  25.3449416  46.0741854   8.1543106  17.3518562
  46.0475206   7.2180152  17.1546984  46.4141560   8.2013285  18.2454121
  58.5171413  34.8646307  65.0767517  58.5428381  35.0278044  64.1339111
  57.6479197  34.4951773  65.2322817  40.7739735  28.6676359   8.6992240
  41.4288044  29.1836834   8.2289845  40.2225971  29.3186069   9.1333371
  74.5732355  74.4215965  49.0993404  74.3994808  73.4806871  49.1263294
  74.0141773  74.7482729  48.3943796  26.2482333   4.3964931  13.1594396
  26.3112736   4.0606278  12.2653186  25.3231025   4.6170053  13.2677913
  36.2608171  73.2190704   7.2176611  35.7662106  73.9811850   6.9163692
  36.4280558  72.7125692   6.4228535  62.5267458  39.9278426  58.4462881
  62.6771402  40.7336760  58.9405060  63.3991575  39.5512462  58.3309698
  84.1837978  24.4602060  43.2211542  83.7374306  23.9017701  43.8576555
  84.5765400  23.8478065  42.5990963   5.2988243   1.6288714  10.6349146
   6.2242454   1.5427801  10.4059696   5.1252073   0.8864922  11.2136734
  48.1262016  16.9139671  34.5259762  47.7549934  16.0945070  34.1989851
  48.1983328  17.4704909  33.7505341  70.5080795  32.9879236  66.0220337
  70.0453138  33.4852767  66.6963673  69.9812412  32.1976042  65.9034109
  39.6820688  29.2614126  18.1333840  38.7691426  29.0276098  17.9656529
  40.0311708  28.5219336  18.6309111   3.9351711  80.5690575  66.6141415
   3.1062299  80.7651043  67.0507812   4.3953392  81.4079189  66.5860558
  57.4779272  75.4183817  25.7625270  56.9104385  75.6718349  26.4905071
  58.1279802  74.8368311  26.1568117  66.0382986  74.1694641  37.5248623
  66.6932154  73.4772587  37.4344945  66.0179806  74.3589783  38.4628940
  37.6071167  56.4491320   9.2919737  37.0492649  56.9409418   9.8945951
  38.2179594  57.0998096   8.9459634  35.9733796  70.7346106  10.9942961
  36.8330431  71.1555481  10.9985971  35.7263660  70.6849957  11.9177437
  81.4123917   8.5441571  26.2267852  81.9913006   9.2899865  26.0691953
  81.9708824   7.7768773  26.1018777  26.7156577   3.0636808  10.4164922
  27.3501444   2.5245342  10.8886993  27.2415185   3.5550088   9.7853822
  78.7909698  21.6961527  58.0865097  78.0796480  21.6164613  57.4509811
  78.4820366  21.2139463  58.8534975  45.9625578  33.5477161  53.7497759
  46.5008211  33.5697818  54.5409870  45.8539629  32.6158476  53.5598850
  19.2419899  79.3734217  58.4952784  18.7736976  79.8888111  57.8385401
  19.9005675  79.9732828  58.8455200  30.7827592  61.8770218   2.9293212
  30.1159477  62.1691942   2.3078462  30.4528737  61.0412216   3.2592368
  71.7217112  54.5003986  66.9390392  70.9582186  55.0757790  66.9865084
  71.6382837  54.0610743  66.0927153  32.3017168  15.5963576  20.5981088
  32.7986622  16.3969946  20.7662082  31.8813848  15.3953481  21.4342594
  81.8294716  30.6277370  47.2976494  81.4162445  31.0281706  46.5327120
  81.5184689  31.1486268  48.0380440  61.5925360  51.1667252  44.3714666
  62.1772337  50.9093380  43.6586475  61.3964987  52.0877600  44.1997242
  50.5999613  63.1083488  14.9878275  49.6826458  63.3701563  15.0667036
  50.9470081  63.6598730  14.2866802  66.9566441  18.1900907   9.1269481
  67.4531221  19.0036857   9.2153054  66.7372322  17.9445863  10.0257337
  56.3844681  57.0448208  18.7422061  56.3342476  56.0948467  18.8483310
  56.0334110  57.2068930  17.8665793  49.0824223  68.7414932  27.0828581
  48.2911110  68.2032299  27.0647073  48.7952328  69.6000957  26.7721272
  72.9401255  42.1207047  48.6415291  73.6666393  42.2330570  49.2545414
  73.2004356  41.3792992  48.0949163  84.9291039  72.8009510  -0.1549755
  84.3556213  72.0477772  -0.2966864  84.5137882  73.2876110   0.5569991
   5.9158885  50.5487823  59.6509123   6.2182528  51.0328150  60.4193640
   6.4823717  49.7780371  59.6151495  26.3887239   2.2868039   0.3078867
  25.5585885   2.7571139   0.3848087  26.7473292   2.2871484   1.1953744
  70.3567314  65.7439613  69.3026447  70.6240368  66.4763117  69.8580217
  69.4692039  65.9674406  69.0223265  48.6687565  51.1636829  41.5731907
  48.5824537  50.7515144  40.7136011  49.1699839  51.9620037  41.4067888
  21.0536242  80.5337715  27.3931646  21.4075828  81.4033699  27.5795746
  21.7216754  80.1144695  26.8508315  62.5109148  50.2978134  18.2313776
  63.3000708  50.1891470  17.7006626  61.8500137  49.7644472  17.7898312
  50.3123426  63.0592012  68.7749910  50.9610081  62.5138807  69.2200565
  50.7797909  63.8692236  68.5710716   6.9615501  60.9101009  17.1378636
   6.0103315  60.8130646  17.0931363   7.1454877  61.7023277  16.6331136
   2.4174185  40.0822496  43.0432701   1.7247257  39.5254159  42.6878214
   3.1678814  39.4965601  43.1432915  49.3396044  71.1172056  31.0958624
  48.8936520  70.8793736  31.9087529  49.7130013  71.9809198  31.2713838
  55.9927988   7.7071464  65.0829935  56.8830490   7.3570967  65.1170206
  55.4384327   6.9796467  65.3652143  22.4104261  18.4278476   9.7217178
  23.1684947  18.1265545   9.2209315  22.1394086  19.2347109   9.2838234
  43.3876038  70.0238371   0.4796175  42.9879379  70.8643818   0.2560403
  44.2929459  70.2407551   0.7021695  22.8641081  78.8798571  16.4729130
  22.0844007  78.7790442  15.9269071  22.7936697  78.1803894  17.1225393
  71.3073778  63.7476587   9.9547648  72.2511578  63.8703299   9.8524940
  71.1649895  62.8194857   9.7691375  43.2868719  12.7069485  44.2020416
  44.0472794  12.5220823  43.6508274  43.6461067  13.1722248  44.9574852
  85.8197594  80.6533146  11.6153431  86.5090847  80.5774498  12.2751164
  85.3984737  81.4917564  11.8044221  17.6098585  56.3061762  44.0297270
  17.3512757  57.2090721  44.2144966  16.8566990  55.9297228  43.5744572
  68.5157776  41.8408680  61.2204266  67.9302025  41.1736870  61.5784836
  69.1076469  41.3562298  60.6450558  53.1206894  69.6017647  53.4763288
  53.4803152  68.9383411  52.8874493  53.2909250  70.4329586  53.0331993
  81.9344234  64.5891428  10.2468109  82.3144913  64.7206783  11.1154175
  81.1898518  64.0066290  10.3968787  55.3340336  12.4658297   0.2471964
  55.7980343  12.8522490   0.9899037  55.4505535  13.0971859  -0.4627617
  14.2488945   3.1610692  25.9039497  15.1515353   3.3478516  25.6459093
  14.3306386   2.6576000  26.7139292  84.6802425  72.2389889   3.9733654
  85.1363850  72.9594421   4.4082391  84.0812778  71.8988085   4.6380091
  15.4658818  70.6664038  49.6154451  15.4151106  70.9441376  50.5300570
  15.9332812  69.8315716  49.6442366  58.8439369  26.2597346  63.6721611
  58.3846617  26.6063809  64.4371033  58.1986046  25.7020068  63.2377386
  59.0664387   8.7994313   4.5535764  59.7138977   8.6103153   3.8744116
  58.4596205   9.4143510   4.1414201  50.3415680  33.2328749  60.9743118
  50.9628057  33.8454914  60.5806112  49.6502686  33.7897754  61.3323689
  68.7487793  49.7483730   1.1382428  68.5213995  49.7717381   0.2087346
  67.9808760  49.3662405   1.5631306  57.1870518  16.6799104   5.7125556
  56.9727135  16.5961850   4.7834271  58.1436253  16.6593885   5.7404816
  70.6830215  74.1870499  24.0186739  70.0910568  73.7174082  23.4311008
  70.1741838  74.9397850  24.3198490  66.6549206  66.9278526  59.2825651
  67.1168852  66.6018915  58.5101843  66.9098091  67.8484869  59.3433189
  83.6183453  30.6137991  61.1426735  83.3396721  29.9493361  61.7727995
  83.5653114  30.1756072  60.2933168   0.1196893  75.5416441  13.3609295
  -0.3401774  76.1103821  12.7434421   0.8258894  76.0865593  13.7081730
  25.9495211   9.7222668  61.5520096  26.8864274   9.9165136  61.5786314
  25.5568075  10.4924750  61.1411762  43.5393256  81.0519452  59.3282747
  43.9495438  81.5848377  60.0094366  44.1416568  81.1064214  58.5863400
  12.5473201  79.1963911  60.0744295  12.1614301  79.7842264  60.7238722
  12.3498142  79.6068382  59.2325544  74.9701262  56.0675955  14.7214544
  74.9737597  55.1281738  14.9050331  75.3150082  56.4688540  15.5191267
  75.9623957  76.2028170   2.0237188  75.4048061  75.5778456   2.4871194
  76.4797068  76.6192484   2.7130681  12.9860604  15.7053256  25.0352192
  12.5303125  14.8637235  25.0504661  13.8577032  15.5119729  25.3803062
  12.0560431  33.4215474  66.4345694  12.9843318  33.5099864  66.6506529
  11.6306281  34.1359639  66.9087696  86.2490286  77.0405102  15.8784258
  86.7359323  77.5459242  15.2274919  85.5415883  76.6290474  15.3819788
  52.9737000  44.5460187  70.7111590  52.6596145  45.4271855  70.5083611
  52.4787597  43.9743476  70.1242535  72.6640511  35.3304291  54.9803305
  72.5013399  35.1753259  55.9107590  73.2231092  34.6019077  54.7102499
  29.2740226   4.8270503  33.4161258  29.6750188   4.5038080  32.6093102
  28.3342433   4.8241645  33.2343554  78.9891911  66.4081383  50.6945419
  78.7362289  65.7072544  50.0937033  79.8709774  66.6555786  50.4162312
  73.6451435  46.2454271  68.4448576  73.6476135  46.7446280  69.2615747
  74.5616055  46.2332058  68.1688452  49.9618196  70.9104967  21.7192674
  49.2239666  70.3895760  21.4023399  49.5957041  71.4367151  22.4301004
  76.3285398  60.7236958  67.1232653  75.4847908  60.8586168  66.6918612
  76.1027622  60.3955698  67.9936600  79.8916006  38.3109546  53.3588409
  80.4609871  37.5631237  53.5398865  80.2079105  38.9998555  53.9433002
  14.5056975  78.6048889  15.2973557  13.7596548  79.2031288  15.3393662
  14.1250277  77.7649641  15.0407588  41.5134287  72.2845697   0.4556225
  40.9583616  71.8598175  -0.1983773  41.1037254  72.0695353   1.2935582
  15.5008662  63.0976200  24.0530515  15.4978931  63.6365128  24.8441386
  15.9229088  63.6457205  23.3914638  14.7149670  68.9523983  21.8831229
  15.3969860  68.8173771  21.2252092  14.9113202  69.8105240  22.2590256
  71.5782070   6.7957532   4.3301219  70.8538532   6.3855642   3.8575873
  72.3034382   6.7936444   3.7054092  34.0885401  30.9400082  10.3520107
  33.3776259  31.3162827   9.8331183  33.9372826  31.2675810  11.2386060
  82.7273083  70.6355238   2.5605989  83.1167603  69.8467922   2.1831518
  83.4461308  71.2669134   2.5902876  56.5731478  30.1242137  64.8117113
  56.9691181  29.9107409  63.9668036  55.6325054  30.1484466  64.6360970
  49.3543005  34.9107862  55.6497526  48.9416599  35.7247472  55.3609133
  48.6309910  34.3819094  55.9864140  36.6276836  29.1361833  67.2117805
  37.4641824  29.1344976  67.6770735  36.0907221  29.7705030  67.6866961
  58.0907249   5.1892626  14.1705096  58.7824488   5.8343601  14.0235507
  58.3904696   4.4069770  13.7074614  56.4656925  31.5900064  61.0805750
  56.8090868  30.9818363  61.7351294  55.8900833  32.1737599  61.5746784
   8.2939851  69.1462755   5.4763496   8.7266815  68.4323883   5.0079775
   7.6860976  68.7081814   6.0719836  40.4919529   1.9348896   7.1471435
  41.4404583   2.0173597   7.0483065  40.3757000   1.5112752   7.9975945
  42.0411634  28.6824131  70.2871084  42.7077007  29.3433666  70.4744673
  42.0725918  28.5732627  69.3366718  61.3928652  42.8198671  65.5078030
  61.6477966  43.4544468  64.8380613  62.1508741  42.2412157  65.5903721
  64.3230820  53.5266018  66.7760706  64.5301723  54.0162420  65.9800816
  64.5508289  52.6208878  66.5662050  52.7185535  20.6643081  25.3643012
  52.1844292  21.4208412  25.6063819  53.6144829  20.9258032  25.5768108
  77.7197886  79.9724579  41.6451740  76.8936729  80.0413513  42.1237326
  77.5241566  80.3261471  40.7774925  42.6376534  11.2790775  53.1102657
  42.5670767  11.0266972  54.0308952  42.7185345  12.2326732  53.1288624
  73.1276131  46.4915133  65.5040979  73.2119656  46.1619139  66.3987923
  73.9988518  46.8240261  65.2882051  55.4376793  71.9307852  58.4342766
  54.7950935  71.6278458  57.7927589  55.7123852  71.1361217  58.8917446
  42.8838396   7.1793437  10.6185019  43.5858631   7.8299826  10.6108940
  42.0800543   7.6933467  10.5412853  22.9079938  80.4360008   4.7592098
  22.8961205  79.8215485   4.0253586  21.9918776  80.6878281   4.8755866
  57.6378298  80.1778793  60.8578300  57.0882368  80.0396729  60.0864172
  58.4941292  79.8313379  60.6070375  86.2862778  74.6849108  22.8949499
  85.8439255  75.0792933  23.6466289  87.2049809  74.6319342  23.1583929
   7.6692790  67.0055389  27.5571179   8.0937707  67.5674772  26.9088411
   6.7906588  67.3728371  27.6538253  71.2886143  36.8635917   6.9829941
  70.8635139  36.8755889   7.8405368  70.8340311  37.5399256   6.4808410
  20.2745461  15.5403042  39.6272945  20.5127001  14.8149419  39.0499187
  20.3354073  15.1740742  40.5095673  44.7854233  27.4841714  64.3053436
  45.5321360  28.0306220  64.5503902  45.1695824  26.7637205  63.8057423
  13.2875514  11.7483997  11.9277918  13.6905658  12.4494302  11.4155746
  13.7825334  11.7353499  12.7469707  74.4863510  51.9205189  67.8480816
  75.1122999  51.3301182  68.2674217  73.8030243  51.3428640  67.5080681
  65.4110336  12.4721682   1.9010116  64.5957279  12.2419202   1.4554843
  65.2360296  13.3272862   2.2939213   2.9236767  77.2659349   4.2619216
   2.4137007  77.4136591   3.4654707   2.4399430  77.7295542   4.9455065
  68.9094925  33.7617135  14.7767508  69.2254496  34.5902324  15.1372480
  68.3092213  33.4245634  15.4417562  46.3296032  10.5879009  13.2298064
  46.6252232  11.2698531  13.8329518  45.4295492  10.4040241  13.4987366
  27.2655582  77.6427555  28.5539460  26.7490053  77.2926044  27.8281355
  27.6311326  76.8690634  28.9828873  29.0297484  16.0743439  66.2516451
  29.8513699  16.4426219  66.5765142  28.3487248  16.5857387  66.6885805
  69.1672039  70.6843138   1.4020146  69.8077059  70.1542282   0.9276773
  69.1986275  71.5391445   0.9724713  76.9840145   9.7584957  13.1698954
  77.0725822  10.6331027  12.7911472  77.8539419   9.3693942  13.0801284
  57.6810980  28.7276316   9.1266376  57.1180439  28.0126095   9.4231927
  58.0784416  28.4006286   8.3195323  16.8303657  51.6795778  60.2329683
  17.0909667  52.3297358  59.5805788  16.3900006  50.9963083  59.7275448
  18.7890875  36.6950655  58.1293488  18.3075523  37.4700117  58.4188509
  18.2265544  36.2981081  57.4643564  29.8871922  64.1758060   5.0603950
  29.6549797  64.4789934   4.1826785  30.2248073  63.2902098   4.9263644
  68.2229900  28.4077454   0.4267918  67.6321411  28.6749506  -0.2772898
  68.1331730  27.4555945   0.4664314  52.9813719  12.0641041  35.7897639
  52.3751688  12.7723789  36.0067797  53.2905149  12.2749507  34.9087405
  19.2603457  31.8434024  32.8105497  19.6651745  32.3678112  33.5014486
  18.3195364  31.9679093  32.9354787  66.2263012   7.2637898  11.7587566
  66.7027998   6.6021711  12.2601974  65.4014301   6.8385333  11.5242982
  63.7785816  13.7660611  63.3114100  64.1296673  12.8929138  63.1365156
  63.4330273  14.0586102  62.4680614  10.1076198  17.0385551   5.5489677
   9.4838023  17.6299012   5.1277870  10.2130377  16.3188815   4.9267232
  64.7307873  16.0996139  45.9678030  64.7666979  15.8061516  46.8781996
  65.5690050  16.5390515  45.8245659  78.2874489  60.0097990  59.5215273
  77.8332424  59.7706223  60.3294420  78.2149029  60.9633064  59.4792509
  72.5371981  43.7646723  68.0566025  72.9824781  43.5730219  67.2312355
  72.6640558  44.7047663  68.1845188  61.0270882  32.2658181   7.1012187
  61.7942667  31.7322373   6.8939430  60.3338099  31.9161391   6.5414679
  67.5054741  26.5454364  15.5814922  67.6724672  26.7933464  14.6721601
  67.0159340  27.2833562  15.9448898  82.2416401  56.3236618  69.5473289
  82.2619343  57.0181608  68.8889313  83.0275345  55.8056593  69.3733644
   9.9666184  66.4714575   4.9289012   9.4768751  65.6494665   4.9021539
  10.7543385  66.2978077   4.4135597  63.9408779   5.0021547   5.1493353
  64.5261908   5.1304996   4.4028971  63.3440828   5.7498342   5.1170617
  43.1638527   3.4475213   1.8591352  42.5488186   2.9276174   1.3417670
  42.6094961   3.9510113   2.4553062  43.8782263  27.6045012   9.8374605
  43.3730650  28.3092451  10.2429020  43.6618805  27.6596093   8.9066595
  68.0504942  56.3796139  33.6223507  68.8086796  56.6128731  33.0866480
  68.0166578  57.0572996  34.2975044  19.9122226  30.3291440  51.9465971
  19.3287992  29.6741343  51.5634346  20.7435584  30.2068424  51.4881659
  56.7736006  32.6044583  21.9817948  56.5145731  32.7265000  22.8951645
  57.5519800  33.1518793  21.8783879  49.3893003  24.9035883   1.4680859
  49.4362545  24.9505973   2.4229772  49.8564386  25.6827903   1.1666645
  64.8389339  56.8952847  55.6447268  65.4826307  57.3388624  55.0923395
  65.0952053  57.1203232  56.5391064  36.8322253  18.4915614   3.8210711
  36.3082814  18.2484317   4.5843571  36.5328336  19.3723762   3.5957661
   8.9733332  80.4630375  55.0759935   8.7078333  79.5487309  54.9770308
   8.1506979  80.9415722  55.1784897  61.0611105  39.4220304   2.2786042
  61.6371441  38.8060427   1.8258667  60.6890440  38.9156055   3.0006367
  51.1852503  68.0914021   4.9885857  51.6935110  68.8442183   4.6866396
  51.1900377  68.1663704   5.9428334  17.8374577  57.4821091   8.1249928
  17.3848438  56.9763660   8.7999737  17.4496782  58.3555269   8.1797326
  80.2927780  68.5192680  69.0509081  81.0907745  68.9344072  68.7236595
  79.6303415  68.7189722  68.3894491  73.4085751  40.2798033  46.5982771
  74.0107155  40.9763384  46.3365507  73.8811255  39.4698954  46.4059877
  65.3607702  36.4547372   6.3835305  65.7035637  36.6497517   7.2557062
  64.6821833  37.1143723   6.2398869  34.5341945  13.8188207   8.8603568
  34.6623158  12.8702354   8.8586468  35.3296685  14.1686714   8.4590375
  58.2660294  58.8341236  68.2169914  59.1331816  58.4988737  68.4447813
  58.0147743  59.3762016  68.9648247  57.1686935   6.3401502   3.2921803
  57.5102043   6.2611914   4.1828915  57.5341368   5.5870664   2.8279126
  81.4381123  40.9527969  59.9211121  81.1152649  40.5009031  60.7007265
  82.2474384  40.4938602  59.6961689  65.1776981  57.1866941   7.2595870
  64.6754456  57.0341396   8.0600232  65.2965117  56.3153267   6.8816453
  62.0801783   6.4575142   0.5096812  61.6140413   5.9643042  -0.1653705
  61.7907143   6.0671932   1.3343583  28.0558419  75.2111912  29.6302390
  27.9301620  74.3216944  29.2997456  28.9605618  75.2250767  29.9425220
   9.1969401  73.6066914  66.7434883   9.7722942  72.9856825  67.1901941
   8.4834409  73.0683804  66.4008904   8.0819583   0.4477321  14.7417009
   8.6120570   1.1876087  15.0380266   8.3022654  -0.2617303  15.3453231
  29.3563747   3.9585927  13.0696189  30.2251267   4.2189676  13.3757389
  28.7734890   4.6474072  13.3890104  24.8736596  33.0889034  56.3144588
  25.7351947  32.7210808  56.5111685  24.2705345  32.3521638  56.4128828
  63.7999821  22.1219325  20.9798813  64.2429924  22.5564027  21.7087245
  64.3814659  21.3996148  20.7424664  58.8202906  74.4783926  13.3301365
  59.7529936  74.6294880  13.1769598  58.5857677  75.1038361  14.0157425
  45.0575733  72.5385189  41.0091209  45.1536894  73.0615664  41.8049908
  45.8517408  72.0052195  40.9756327  28.4125400  60.0708961  52.7751398
  28.8568592  60.4294491  52.0068598  27.4839067  60.0859642  52.5435209
  32.0629334  67.8387928  62.4176645  32.5931501  68.5272121  62.8191376
  31.3506699  68.3078337  61.9830179  53.4119225  33.8881660  65.7921457
  52.8885365  34.6701288  65.9677315  54.2677021  34.2268324  65.5291271
   9.0985775   2.2769605   5.7910520   8.7107193   2.9066914   6.3987005
   8.8572353   1.4215004   6.1462611  36.8234611  12.9494035  15.7621443
  37.4541616  12.7865505  15.0607705  36.9215512  12.2011387  16.3509655
  49.0476418  33.6409307  64.8317957  48.2386446  33.1616664  64.6527338
  48.7689972  34.5507383  64.9359179  65.4662609  73.6858511   8.3321798
  65.9112358  73.2277489   9.0451813  65.4759264  74.6059847   8.5957915
  48.1168604  20.1115537  51.2339926  48.0628633  21.0614848  51.3386345
  48.6702776  19.9865901  50.4630566  26.3683558  22.1147943  52.9064608
  25.8210206  22.3561645  52.1591997  26.0323763  22.6435781  53.6301565
  15.5431879   9.7202939  63.4477329  14.9600792   9.4671869  62.7320862
  16.2832880  10.1456225  63.0146265   1.4869554  44.0215969  18.2662988
   1.7544284  43.1026602  18.2507813   1.0013767  44.1435242  17.4504685
   8.9667588  59.9870682   6.4855468   9.2654973  59.4264317   5.7695323
   8.1766260  60.4078388   6.1466157  76.3685656  66.6791773   8.2794732
  75.4728889  66.7135525   8.6153483  76.5787315  67.5879002   8.0643374
  74.6648884   1.1775855  60.3630304  74.8414230   1.2872180  59.4286633
  75.5182028   0.9734514  60.7456684  34.7489238  76.0658598   9.6636730
  34.5250869  75.2868032   9.1545600  35.5154848  76.4294958   9.2205179
  31.3261867   9.4829965  61.8685484  32.1161246   9.2882198  61.3642740
  31.5086508  10.3261340  62.2833443  66.8327093  17.9118264  67.1677446
  67.4941397  17.5632596  67.7654362  66.3886261  17.1368301  66.8236399
  77.7119207  21.8427014   5.0658941  78.5753107  21.8347669   4.6527001
  77.4034166  20.9394813   4.9934494  54.0157318  11.5037072   6.8991286
  54.1814709  10.8850741   7.6105046  53.0683899  11.4682853   6.7667633
  21.3928747  54.8653507  59.9631453  21.8043852  55.7216454  60.0799656
  20.4829168  55.0649214  59.7431946  52.3485184  54.2632771  61.9896746
  53.0717897  54.8888111  62.0323467  52.2437191  54.0816593  61.0557222
  27.8380108  51.2604475  13.5960782  28.5348511  51.0036373  14.1999781
  27.4289131  52.0196629  14.0113604  69.3364573  24.2898226  58.2588196
  68.7883854  23.9041018  58.9422464  68.8263893  25.0312829  57.9327869
  58.4645510  23.4796667  62.8939962  57.7145004  23.1783795  62.3812723
  59.2073107  23.4126401  62.2939587  85.5937481  32.1286750   7.8952068
  84.9550533  32.7391887   8.2634246  85.9211826  32.5688052   7.1107972
  39.0517449   0.3168524  65.0927305  38.1810188  -0.0170692  65.3085232
  38.9947867   0.5537482  64.1670609  31.0180259  37.6153302  66.9253302
  31.7167854  37.8240132  67.5453472  30.2240300  37.9592109  67.3346567
  38.4746671  22.8701925  59.9583530  37.9056716  22.1006227  59.9737883
  39.0795732  22.7063417  59.2348385  64.7899675  12.7583861  54.7651005
  65.0135660  13.2900703  54.0011978  64.0766430  12.1953130  54.4645166
  31.6443467  70.1142216  60.7711220  32.5960159  70.0970173  60.6698275
  31.4393711  71.0313702  60.9529305  57.3393965  56.5687943  58.5989380
  57.6249504  56.9768429  59.4163656  56.3880730  56.6747046  58.5979366
  23.7739539  80.9717941  49.7433710  23.8321185  81.6123199  49.0344429
  23.0592513  81.2895012  50.2951813  75.5008888  39.5175910  48.7352228
  76.2801266  39.0143728  48.4990072  75.5792713  40.3295994  48.2344913
  46.0447598  50.5125332   0.3198719  46.3207006  50.8905935  -0.5150904
  46.6861200  49.8237848   0.4945517   3.2628986  62.6730633  63.6989975
   2.9231429  63.4990740  63.3547544   2.9043704  62.0046902  63.1150770
  65.1518440  26.7003298  54.5347929  64.6720409  26.5954971  55.3563976
  65.9818649  26.2470722  54.6826363  70.1398373   4.5215765  61.9618511
  69.5243120   4.6531400  61.2407112  70.9481335   4.9405465  61.6662884
  69.7056389  32.1518350   0.6668992  70.0342560  31.5745616   1.3561015
  70.0675154  31.7894864  -0.1417925  23.1080937  20.5361152  30.6465220
  23.0515337  21.3104820  30.0867105  22.3333931  20.0208664  30.4216003
  14.4346058  29.7350264  45.9666300  14.5487738  29.9318504  45.0368690
  13.4859228  29.7029328  46.0899258   7.7911234  17.1157670  49.6499538
   7.7176619  16.3341522  49.1023111   8.3325571  17.7167594  49.1382027
  62.6822948  63.6360884  12.3561990  62.0634556  63.2181549  11.7573643
  62.7063847  63.0572176  13.1181467  62.3948383   0.3536357  68.4667349
  63.1984758   0.0528167  68.0425787  62.3449326   1.2851176  68.2520628
  68.2157469  35.7340693  53.1510544  67.2820234  35.9176350  53.0476284
  68.4533358  35.2485633  52.3610735  37.2563982   2.4767241  51.4832687
  36.6889906   1.9066837  52.0022440  36.6534829   2.9855347  50.9412050
  79.1414452  71.4315796  21.6754532  79.7083950  70.6871510  21.8770218
  79.4091034  71.7058945  20.7983327  78.4982109  19.7203696  16.7496920
  78.3022976  19.4396210  17.6435769  79.2182827  19.1536295  16.4730346
  57.2100735  76.8424702  61.8449926  57.3104477  76.2774754  62.6111126
  56.5699577  76.3898373  61.2958097  49.2532110  14.8920548  65.1139212
  48.4737825  14.8114634  64.5641661  49.2027760  15.7780933  65.4725599
  70.7869911  51.9659662  56.8917608  71.2571812  52.7138996  56.5233183
  70.5012560  52.2644091  57.7551937  82.4984550  33.9889836  32.9862881
  82.1711731  33.3657503  33.6348987  83.3281136  33.6138606  32.6910162
  62.9311705  20.0599504  32.6377797  63.8526821  20.1038742  32.8929639
  62.7714014  20.8823347  32.1747589  56.5059233   3.4016263  19.0071702
  55.8510876   4.0981758  19.0544856  57.0405102   3.6267841  18.2457554
  34.1638112  56.4338589  47.3527765  34.0322590  56.9033670  46.5290737
  34.2517138  55.5164623  47.0941544  54.0292978  15.3663719  68.3627796
  54.5523691  15.2255058  69.1519499  53.1863451  15.6829464  68.6875010
   1.4660241  42.7932787   8.3314067   1.6500649  43.5206175   8.9258301
   0.8422236  42.2460175   8.8084900  73.8116550   7.3994756  57.1099281
  74.0278053   6.5107107  57.3920822  74.6603775   7.8224051  56.9794178
  73.7986183  40.3551960  65.7880354  73.3705664  40.0934935  64.9728537
  74.7241783  40.1557970  65.6472778  15.4409873  76.6365147  19.7035980
  16.2040877  76.3082743  20.1791692  15.2322125  75.9429407  19.0778172
  29.6170092  49.4630766  29.8585320  28.7436938  49.2374563  30.1789188
  29.6298337  49.1468000  28.9551854  10.2794003  43.9425898  21.3391089
  10.2366531  44.3194389  22.2179651   9.9324560  44.6276236  20.7676291
  52.6262999  19.2318869  68.3453131  52.5115013  20.1752591  68.4597826
  52.7901936  19.1224682  67.4086189  52.8856659  51.8391466  38.3187199
  52.0320797  51.7733955  37.8905869  53.5100555  51.9169521  37.5973916
  31.5319276  62.8784180  52.5616455  31.7150950  63.0385494  53.4874105
  31.2614632  63.7307167  52.2200871  31.8929958  12.1553910  60.1021433
  31.2217617  12.2440541  59.4255209  31.4399338  12.3674667  60.9182215
  38.4954023  70.7547522  15.7802403  39.1946268  71.2514305  16.2052417
  37.8963447  70.5278969  16.4915049  53.2526922  13.6114621  48.8277292
  52.6986504  13.6917460  49.6041489  53.5196829  14.5091856  48.6301422
  73.0047035  24.4215012  55.7804775  72.8387403  23.5312533  55.4703951
  72.5497246  24.9825883  55.1524591  41.2257671  24.6975899  52.5748825
  40.4847097  24.2296314  52.9596949  41.0434341  25.6206989  52.7505350
  30.0065351  50.4407310  15.0608873  30.6032825  49.8112345  14.6560907
  29.6582580  49.9828243  15.8259070  44.2096567  71.0721254  64.8862219
  43.6629772  70.7446766  65.6004715  45.1042843  71.0078001  65.2204895
  81.5670872  57.5322342  56.7556620  80.9782600  57.7892447  57.4652147
  81.7186069  56.5976954  56.8967962  12.7894926  78.1790352  18.6945295
  12.5381911  78.5653019  17.8555548  13.5177398  77.5956631  18.4810722
  48.8796377  12.8347158  66.8712425  48.5053492  12.1752775  66.2870550
  49.1702652  13.5350096  66.2869883  49.4323015  16.9741702  44.7029305
  49.2934704  16.0344696  44.8209190  49.4064856  17.1029055  43.7547779
   9.3546432  34.7571373  31.8303704   8.9440787  34.0270042  31.3671517
   8.6210138  35.2970028  32.1245909  72.4784899  24.7092915  63.4536266
  72.2010612  25.4160643  64.0364981  72.1313190  24.9556708  62.5963068
   2.5418019   6.2087947  69.8168612   3.2115048   6.5371507  69.2169333
   2.1075344   5.5079234  69.3306303  68.4087420  42.1876764  39.1370010
  68.0265236  41.3350296  38.9292932  69.1704655  42.2553396  38.5613036
  11.0288513   9.6917254  62.7052832  11.2327158  10.5825830  62.9899645
  10.7836354   9.2336059  63.5091686  40.6972265  28.2469702  48.4627390
  41.0031319  28.8897586  49.1026449  40.3592682  27.5244212  48.9918327
  76.3254309  29.5113778  60.2573538  77.2791052  29.4386506  60.2954006
  76.1246395  30.2968979  60.7661486   7.5692844  21.2534356  65.1725578
   7.1916074  21.3955498  66.0405397   7.5079429  20.3079343  65.0365448
  35.0366616  50.9713030  24.7379804  35.4032397  50.3523111  24.1065526
  34.1474342  51.1353588  24.4239902  36.8366718  12.9007006  61.1176538
  36.7391396  12.7021456  62.0489407  36.2829399  13.6687493  60.9772348
  62.4216890   6.0750926  51.3661623  61.4828300   6.2045258  51.2319183
  62.5863647   5.1826358  51.0618019  14.1178918  42.7809334  18.2886171
  13.6412454  42.1421385  18.8186920  13.9908266  43.6129475  18.7445152
  33.2453561  12.1917284  48.9826965  33.6894679  11.7657149  48.2495451
  32.3530889  12.3393071  48.6691523  45.0358295  72.4156666  50.6626129
  45.6468487  72.0795250  50.0069475  44.7698307  73.2712412  50.3257561
  50.9815931  19.8373151  65.5435848  51.9062328  19.6291757  65.4096222
  50.5933237  19.0174150  65.8489418  57.7844429  20.0579810  46.0476971
  57.7442741  19.9855411  47.0013046  57.6167679  19.1697657  45.7327461
   4.7295004   6.4015591  67.9127359   5.5252904   5.8697987  67.8992796
   4.7043827   6.8169135  67.0507145  71.6604567  23.0447984  69.0151501
  72.1824265  22.2827458  69.2662525  71.9980812  23.7562132  69.5593309
  49.8684168  74.5867634  58.3396196  49.5803022  74.1122913  57.5598145
  49.5854235  74.0387440  59.0716171  15.3720498  38.9953446  14.8935044
  15.7708180  39.0605283  15.7612407  14.5173240  38.5947251  15.0521815
  72.5187969  17.4757957  69.8040199  71.8093586  17.0561576  69.3173647
  73.3178759  17.1633196  69.3796778  82.8024673  16.3247073  62.6995897
  82.7162838  16.5138090  61.7652225  83.5769272  16.8163228  62.9730129
  25.8960700  17.5561941  48.1324100  25.5000496  16.8187094  48.5966492
  26.6534591  17.7963555  48.6661863  83.6734390  33.7393761  59.3998480
  84.5081997  33.6093163  58.9498615  83.2837391  32.8659654  59.4388437
  57.6721001  70.1154137  56.2317562  57.6734591  69.8581076  57.1537209
  58.1784344  70.9274101  56.2089586  64.2662239  45.2700949  61.7760563
  64.5508194  45.4284382  60.8759642  64.8597765  44.5922232  62.0991898
  77.4039793   0.3644093  65.9038115  77.4958992   1.0125115  66.6021967
  76.7193794  -0.2277280  66.2151432  60.5606222  77.7995968  44.8724747
  60.0228357  78.2715368  45.5083132  61.4597893  78.0454254  45.0899601
  23.5213089  29.7577548  21.9412661  22.5902343  29.6023273  21.7825937
  23.9195418  29.7355151  21.0711241   7.2503829  77.2689867  11.3351464
   7.2737795  77.8237009  10.5554199   6.5360194  76.6536522  11.1699748
  68.0695629  51.5317631  55.8553886  69.0108919  51.3795185  55.9387732
  67.9879332  52.4806976  55.7600307  35.2193856   8.2583344  52.7304220
  34.8647785   8.1627727  53.6143637  35.8418989   7.5365150  52.6427555
   9.7337037  41.0890675   7.9295242  10.2848721  41.5172195   7.2744453
  10.2962422  41.0078239   8.6997068  75.6041479  41.0106611  44.3103075
  74.6824741  40.9567165  44.0576315  75.7924604  40.1623964  44.7118235
   3.0859348  24.4848442  67.3035669   2.7452126  25.3526759  67.5203800
   4.0147763  24.6302676  67.1237421  22.0423985  61.9654846   2.9721066
  22.2460198  61.4903975   3.7777510  21.3143849  61.4793873   2.5848889
  26.5623760  41.7925549   2.2620073  26.8808937  40.9042406   2.4222384
  27.3393583  42.3448563   2.3485784  49.6614027  59.2793989  42.3328590
  49.4231033  59.1313791  41.4176893  49.3561840  58.4955359  42.7896261
  71.0170364  36.9618511  64.0811682  70.1180935  37.2821450  64.0067053
  71.5504742  37.7550125  64.1318750  79.9883842  36.0693026  66.5486717
  79.8506832  35.9089494  65.6150961  80.3307533  35.2414942  66.8859339
  73.6832571  75.7290936  10.9388256  72.9752302  76.3049555  11.2274659
  74.4732571  76.2642241  11.0147774  78.9868021   7.9674309  70.0213718
  78.8879204   8.8480353  70.3832960  78.5276747   7.4007457  70.6412935
   7.1409595  29.0062141   5.1684970   6.5152019  29.4826436   4.6229008
   6.8700773  29.1975021   6.0664183   2.1444458  27.3125529  40.5345488
   2.4724874  27.1173573  41.4123392   2.6161292  28.1033182  40.2729416
  37.8286839  38.8321710   3.4901121  38.6624670  38.4925008   3.1650570
  38.0479908  39.2470980   4.3243623   1.7655851  72.3793459  13.8818359
   1.2081861  72.3667383  14.6598971   2.4334595  71.7158508  14.0548897
  50.3143549  17.8817356  47.0694447  50.4200602  17.0438194  47.5199509
  50.2863693  17.6523924  46.1405468  78.1475639   6.0767913  58.4572363
  78.3177900   6.6201943  57.6878452  77.2338247   6.2556106  58.6793470
   1.7101359  35.3189802  37.9874253   2.0273645  36.1424136  38.3583093
   0.7671569  35.3299665  38.1514406  63.9483309  73.4724331  12.4272537
  64.1899061  72.5468349  12.3934186  64.6837807  73.8958883  12.8700078
  85.6492901  27.5999379  54.7010374  86.1207867  28.2797408  55.1824856
  84.9554443  28.0708361  54.2394447  26.3088393  66.5178490  36.0643864
  27.1163321  67.0124435  36.2042642  25.6191683  67.0808744  36.4159393
  42.3926783  30.8965826  60.3394604  41.7188549  31.5754676  60.3755617
  42.2020674  30.3299379  61.0870028  40.2472544  55.0810909  39.6882558
  41.0678291  55.5489159  39.8432827  40.4930353  54.1560555  39.6999526
  43.9668131  13.5730433  66.7997599  43.2267570  13.5572731  66.1928844
  44.7229815  13.7786925  66.2500763  50.8076763  70.1015472  57.9071474
  50.6124544  70.1386309  58.8434935  51.3562155  70.8693075  57.7462626
  43.8862228   8.8572562  57.1177769  44.5036364   8.1360698  56.9956207
  43.3483219   8.8487470  56.3260555  61.3006210  11.4059675  62.5975466
  61.9004154  11.9628799  63.0938625  60.6293344  12.0063138  62.2732258
   9.6717292  42.2829247  32.9544687   9.1060340  42.4208355  33.7142062
   9.6410429  41.3385582  32.8012824  65.3063440  12.8357518  33.7378144
  65.4407692  12.7022219  32.7995539  64.6130085  12.2182727  33.9707041
   3.7745908  64.3049526   8.8328093   3.9665651  64.7060108   7.9851472
   4.3905279  64.7178268   9.4381100  83.9984894   0.1055722  64.4410038
  83.6598492   0.5299048  63.6526537  84.7417641  -0.4131783  64.1333199
  26.7574859  58.9943409  12.2876346  27.7129006  58.9847517  12.3452926
  26.5018630  59.8265266  12.6855683  59.9804831  28.4429264  61.9153023
  59.6817732  27.7978301  62.5562811  60.2567005  29.1932774  62.4415207
  34.7614551  18.7388742  30.1461959  34.1197562  19.3256307  30.5464077
  34.9113154  18.0619192  30.8061242  59.0170193  65.4753447  68.8668156
  58.3272457  65.6200171  68.2191181  59.0317345  66.2801075  69.3848658
  56.0171604  13.3442080  10.1411998  55.5142641  13.7177241   9.4174480
  56.2965345  14.1020072  10.6549323  46.5179205  44.1739607  59.6010447
  47.3079681  43.9983654  59.0899467  46.0384369  44.8225355  59.0856028
   3.4433535  41.0040188   2.0050587   3.3513021  40.5147648   1.1875084
   3.9705583  41.7673731   1.7693028  65.2296305  15.4948831  59.1630983
  64.4546747  14.9797595  58.9387751  65.9253311  15.1320815  58.6148167
  77.7574396  11.7681122  27.1670485  77.5667191  11.0420156  27.7608848
  78.6683702  11.6316199  26.9066525  46.6062021  79.9315977  66.2834692
  46.9212437  79.0592861  66.0467052  45.8459282  79.7683382  66.8416452
  18.6184597  38.3206844  14.9374425  17.7413809  38.6499453  15.1337910
  18.6972249  38.4010530  13.9868808  20.8448696  48.0109024   6.7293972
  20.6487012  47.7839184   5.8204269  21.1466241  48.9184332   6.6898662
  57.2614145  77.7554893  39.0153098  57.8184891  77.7007341  39.7917771
  57.1125317  78.6930943  38.8929868  71.7708731  15.1348770  60.5086184
  71.7385817  15.9605443  60.9918022  70.8782816  15.0112164  60.1857948
  53.2790136  72.9348516  30.3937817  53.3348560  72.1625757  30.9565473
  53.9885664  73.5024118  30.6948471  11.1446798  66.2148142  35.7551646
  10.3749096  66.7585135  35.5875993  11.8866587  66.7691708  35.5135322
  49.6926260   8.2558662  39.6447134  50.4174662   7.6307023  39.6470332
  49.7508574   8.6869365  38.7920594  81.4687443  12.6002145  65.2970171
  80.6587219  12.8980398  65.7110119  81.3306427  11.6652000  65.1456642
  80.1025677  26.2866855  60.9691095  80.5280781  26.5287352  61.7916584
  80.0740910  25.3300691  60.9866238  69.3846369  22.7719522  67.5163078
  70.2534962  22.7438402  67.9169703  68.8737679  23.3411288  68.0918789
  83.3470249  32.6884532  54.0491819  84.0425777  32.5237870  53.4125280
  82.5393295  32.6491690  53.5370255  61.2718868  17.2486591  55.4868698
  61.8267488  17.0431876  56.2392902  61.2697029  16.4464259  54.9647093
  53.8215828   0.9089789  45.0926971  53.7158012   1.8025151  45.4192448
  54.7687101   0.7911171  45.0199461  60.6766987  51.6260672  68.1043768
  61.1997175  51.1756134  68.7675333  61.1255884  52.4610186  67.9717731
  42.3100853  45.9989023  16.4939797  41.8176889  45.5610180  15.7996929
  42.8683949  46.6251898  16.0332334  42.8064680  59.6450138   9.0806180
  43.4857941  59.9339008   8.4712803  42.5793648  58.7631845   8.7856007
  45.4672241  39.6255898  65.9627199  45.4119778  39.4967842  66.9096041
  46.4053774  39.6905613  65.7841730   9.3158287   9.6749794  39.7362542
  10.2408648   9.4529355  39.8422575   9.2906678  10.2308416  38.9574003
  78.8299417  26.0949063   2.5716662  78.8596630  25.5566835   3.3626568
  79.5307684  26.7357635   2.6915586  77.0660353  43.2001400  27.8863668
  76.8357897  42.2724771  27.9379988  76.5279055  43.5410786  27.1719384
  42.6447248   6.3938975  30.5009913  42.7092361   6.7353606  29.6090984
  43.5504436   6.2190729  30.7566166  65.6567669  29.6410823  54.3776083
  65.3894472  28.7408185  54.1924191  65.0209236  29.9519849  55.0220251
  61.1271334  22.8860474  61.3275146  61.1638212  23.6999154  60.8250189
  61.3481188  23.1464791  62.2217035  29.0477729  67.0863390  31.0546303
  29.9761748  67.2702456  30.9115171  29.0409279  66.3525486  31.6692352
  83.7254715  38.3266592   1.7241168  83.0013084  38.6627674   2.2521725
  83.3606339  38.2425070   0.8431841  34.0196800  33.5400367  69.3025637
  33.3495688  32.9283619  68.9975452  33.5531497  34.3676233  69.4195223
  61.6955566  17.8969216  14.4988048  61.9903851  18.5172236  15.1655376
  61.5153837  18.4387243  13.7305474  43.0691147  35.4779315  50.6643295
  42.7484989  35.9709477  51.4195585  43.9367247  35.1720572  50.9287643
  74.3024015  16.2783003  39.9059200  74.0114260  17.0414543  40.4050779
  74.8246336  15.7707131  40.5270958  12.4795461  55.2177954  34.6719074
  13.2500648  54.8042440  34.2826724  12.2258711  55.8924007  34.0419960
  66.0036612  35.6121540  57.4786425  65.8991766  34.7738552  57.0285606
  65.7599878  35.4288650  58.3859777  85.7096386  13.3528399  62.2202682
  85.5451202  12.4253178  62.3901701  85.0959110  13.8136601  62.7922964
  75.3868723   6.4614803  12.9380572  75.3861046   7.1765810  13.5743451
  74.9652672   6.8308353  12.1621346  69.2471027  64.0706921  41.8377209
  69.1793966  64.9246120  41.4105558  68.4687853  63.5952044  41.5472651
  61.7370939  44.8951435  62.6087379  61.2661648  44.4846010  61.8835402
  62.5644827  45.1842403  62.2239256  27.8267956  61.0341835  15.9463942
  28.6049104  60.5011511  15.7831550  27.8195763  61.1633015  16.8948174
  49.1894722  10.5303061   4.2130503  48.9291048  10.4126906   5.1266199
  49.6969891  11.3418806   4.2112240  77.3332071  17.9640400  41.6965914
  77.4657440  18.7121022  42.2788858  77.0358562  17.2608411  42.2739315
  28.4169817   8.3302331  49.7845984  28.4684896   7.5477570  50.3335142
  29.3269229   8.5270381  49.5620966   1.0846127  23.5736728  42.3170567
   1.6798836  24.3219280  42.3617554   0.3303243  23.8967896  41.8242311
  27.2859669  66.6415501   3.3404115  27.1106553  65.8345175   3.8243434
  27.8865767  67.1317959   3.9018059  52.8602839  23.7663388   6.6756701
  52.9752016  22.8178716   6.7342710  53.4586811  24.1211772   7.3331249
  79.3941498  12.3633647  37.9752684  78.7402105  12.0659173  37.3427176
  79.1935158  11.8760049  38.7743020  62.3876667  68.1513977  66.4105129
  62.7050066  67.8244972  65.5686903  61.4823008  67.8447390  66.4606380
  52.1226931  57.5233269  49.5417356  51.7329550  58.2536030  50.0223923
  53.0409098  57.5214720  49.8121214   8.5504037  19.1221559  47.5140858
   7.7975017  19.4985175  47.9698515   9.2799997  19.6991897  47.7398157
  24.1596889  76.9132423  18.4980464  24.6981740  76.1256170  18.5749054
  23.3873272  76.7284155  19.0323949  84.3606186  31.3019347  57.5601673
  83.5140896  31.5810776  57.2113085  84.1698074  30.4909134  58.0314064
  37.2727561  58.4499598  17.3160303  36.4747572  58.2984638  16.8095934
  37.9764748  58.4237623  16.6677046   2.5137028  54.9256611   8.3354896
   1.9803263  54.1338778   8.4049147   2.8686917  55.0532150   9.2152309
  29.1024971  74.4363928  11.8943691  29.9104452  74.9075890  11.6908371
  28.5950422  75.0496197  12.4260414   9.4582981  56.1882877   0.2697768
  10.2551019  55.8596802   0.6861344   8.8113433  55.4972839   0.4118838
   5.7849658  31.1204600  58.1334066   6.4768124  31.3586116  58.7505484
   6.1455637  30.3819799  57.6426458  75.3326416  69.1918039   0.9412991
  75.2763081  69.0836525   1.8907000  74.6372843  69.8145866   0.7295073
  14.6758187  64.1937399   8.2470781  14.3100059  64.7847462   7.5889581
  13.9189684  63.7172985   8.5882723  64.1869688  28.3176517  47.5208759
  64.5847797  27.8817344  48.2745028  64.7923708  28.1481934  46.7990732
  17.2331572  69.2415619   6.6930950  16.5776420  69.3731403   6.0080987
  17.2994292  68.2907820   6.7817360   9.7189075  37.5268078  67.2379255
   8.7756830  37.4101996  67.3517752  10.1126719  36.8889403  67.8331614
  74.7988272  62.8724957   1.8449819  74.2012787  62.4687815   2.4744110
  74.7577381  63.8083076   2.0419647  80.2377129  11.0784626   8.5601431
  79.3278217  10.8820689   8.3370787  80.3562164  11.9920361   8.3001977
  59.6311522  50.0480652  63.4572363  59.6913242  50.5987787  64.2378330
  59.2323303  50.6132030  62.7955770  20.3238153  38.6615491  56.5999746
  19.8149049  37.8511786  56.5767145  20.3732657  38.8867331  57.5289965
  36.9420624  77.5654078  46.3412762  36.4786887  76.8765497  45.8648396
  36.3424683  77.8153038  47.0443201  32.2550488   9.5652664  57.9415751
  32.9440761  10.1119983  57.5640106  31.4807367  10.1279330  57.9504967
  75.2533245  29.3767667  64.1964197  75.3880548  28.5521436  64.6634054
  74.8387671  29.9514675  64.8399210  67.0653296  21.3070488  61.4179468
  67.6353502  20.5755639  61.1808062  66.7099619  21.0661864  62.2734785
  49.3098307  24.6443152  61.0419178  50.2118969  24.9634433  61.0677767
  49.3427038  23.7970185  61.4860392  35.3123760  32.4487209  29.6179295
  34.9250650  32.6617360  28.7689018  34.5772386  32.4766684  30.2303219
  81.8903446  30.3665400  18.5604966  82.8369713  30.3362632  18.6990976
  81.6163540  29.4495440  18.5773695  86.1952496  44.0217638  45.8572912
  85.8488464  43.2412148  45.4248714  85.8993721  43.9442968  46.7643118
  86.4279175  48.2930374  36.1941433  86.9526768  48.8168812  35.5887938
  85.5426598  48.6478424  36.1124969  81.4734554  30.0581694  70.4705572
  80.6826591  29.9198556  69.9492645  81.8420219  29.1820478  70.5837011
   2.7884418  34.9577284  55.6347990   3.3647612  35.5383348  55.1378250
   3.3683428  34.5216298  56.2591124  55.4609680  33.1670213  62.9518318
  56.1482239  33.6663485  62.5107193  55.3057480  33.6424971  63.7679577
  20.5891728  13.0056405  34.9260831  21.3745403  13.2998753  34.4647193
  19.8629868  13.3576584  34.4113350  17.7521849  47.8406382   7.0994854
  18.6785734  47.7114439   6.8961501  17.6465309  47.4751711   7.9778379
  25.7199192  50.0066376  65.9269476  25.3584743  50.6712389  65.3405190
  26.5732145  49.7927904  65.5496073  10.2518213  43.3071375  69.4981337
  10.0043273  42.4790525  69.9095392   9.4186091  43.7228870  69.2764473
  75.0733042  34.9523950  51.9109297  74.4077253  35.0597906  51.2314415
  75.7091522  35.6459498  51.7351198  55.4540682  16.6470420  58.1298161
  55.7944202  16.0005987  58.7482834  56.0143852  16.5590084  57.3587608
  45.7854319  46.4740801  69.0205288  46.4020824  47.1014214  68.6431456
  46.3391209  45.7830191  69.3839836  17.5546610  73.4941578  51.1589575
  17.7429271  72.9758310  51.9413424  18.3832073  73.5145664  50.6800747
  42.6718998  74.9309015  63.1377506  43.0500031  74.3235683  63.7736845
  42.5575590  75.7470417  63.6246538  22.2979569  73.8916111  18.5770535
  22.4636555  74.5222473  19.2778206  21.3464165  73.8935661  18.4731328
  57.6604605  65.4317427  51.6017723  57.3944569  64.5124292  51.5833521
  58.4608936  65.4390001  52.1266413  11.4066803  45.8055830   4.6163166
  11.5559924  45.5753183   5.5333316  12.2841156  45.9312010   4.2549849
  69.1396189  37.4933505  43.6636639  68.4575176  37.2946429  44.3051338
  68.7786245  37.1933222  42.8294563  46.4577723   0.9236590  29.5150471
  46.7766047   0.9348225  30.4175186  46.8851709   0.1640304  29.1194129
  60.5464315  66.9860840  61.6599464  59.9579191  66.4236355  61.1564207
  61.4243793  66.6877413  61.4223862  80.9889698  47.7147388  57.4087763
  81.3850307  48.5857105  57.4366474  80.1371288  47.8521395  56.9943905
   0.6143889  45.3748941  62.0906782   0.0937366  45.4552507  61.2914944
   0.0317402  44.9402189  62.7134228  10.4325950  31.2961864  20.6416440
  10.2533150  31.5049624  21.5584326   9.9361563  30.4945040  20.4770589
  42.3453331  18.0097711   3.2215017  42.3023319  17.9423738   4.1753572
  41.7055178  17.3709738   2.9071707  68.9026499  80.5207157  11.4521742
  69.3712711  80.6879330  12.2698927  67.9806471  80.6519699  11.6733491
   9.3170172  54.8964882  22.8710675   9.5253533  55.1881838  23.7586141
   9.3369401  55.6961060  22.3452854  23.7234092  60.3549433  22.6758432
  24.3764687  61.0418844  22.5422001  23.0042529  60.5908871  22.0898581
  26.0990334  41.6113091  50.6979513  25.5284595  41.0406351  50.1831579
  26.9772363  41.4432001  50.3562880  39.9755859  67.9154205  18.6130953
  40.7613945  67.5899839  19.0522206  40.1089573  68.8613987  18.5534084
  10.5391300  80.2527714   1.0102330   9.9610406  79.5038557   1.1557375
  11.3034725  79.8830318   0.5682987  12.2590280  71.1008263   1.8232130
  11.7716682  71.3858509   2.5961760  13.1785977  71.1973429   2.0708193
  79.4691706   4.6164256  53.8030386  80.0185108   4.4168040  54.5610666
  80.0862408   4.8974866  53.1274176  26.5059566  13.8390505   3.0564535
  26.5460348  12.9207516   2.7893335  26.6057038  14.3302703   2.2409865
  35.3682828  42.3048687   5.2985805  34.6365023  41.8510056   4.8805642
  34.9699879  42.7812767   6.0270220  57.3010731  47.9567909  57.5238228
  58.0018759  48.6048126  57.4519062  56.6076660  48.2896519  56.9540644
  27.4747252  50.5250502  23.7999988  28.1767893  51.0797501  23.4599328
  27.6922894  50.4029179  24.7241092  27.1244597  29.1576648  10.7150805
  27.3954844  29.9204516  10.2042627  26.9676304  28.4755564  10.0621164
  68.5336256  11.9698334  40.6390381  68.1796074  12.8369057  40.8367348
  67.8084850  11.5043998  40.2221775  79.3411064  33.9492726  38.1308627
  78.7860489  33.9401436  37.3510790  79.4701242  33.0250311  38.3438540
  45.5521059   3.5092068  22.6293540  45.3045082   3.2009360  21.7576313
  44.9885178   3.0171666  23.2264280  59.0669823  52.1841812  61.1162758
  58.2317734  52.6140261  61.3003588  59.4035959  52.6362085  60.3425884
  47.5419521   7.3427421  43.0580282  46.9153786   7.5137919  43.7611437
  47.2585869   6.5092605  42.6822042   6.4690036  45.8132887  51.3821793
   5.9366184  45.0480890  51.1647654   6.2093800  46.4755201  50.7416487
  85.9990311  36.7143011  51.2385082  86.4081287  36.4581442  50.4119158
  85.8928299  37.6630688  51.1692858  28.1385040  15.2961624   8.6302572
  28.7986350  15.7586038   8.1139183  28.5516214  15.1632917   9.4834346
  53.7013102  63.7770176  54.7262096  52.9044151  63.8626099  55.2495241
  54.3521595  63.4295654  55.3360462  43.4994173  21.5087557  15.2893293
  43.2842493  21.6707492  14.3708026  43.5280037  20.5549026  15.3640068
  66.9866991  56.8434143  65.9551334  66.1047316  57.2072029  66.0327625
  66.8678904  56.0297298  65.4652023  58.6757660  45.6160831  57.9634142
  59.5582962  45.9786129  58.0405188  58.1053495  46.3830853  57.9127026
   3.0292147  16.3756347  67.4419641   2.4018231  17.0465159  67.1726513
   2.4878456  15.6222367  67.6776409  85.1505184  53.4720373  34.2178893
  84.4146061  52.8682280  34.1174507  85.0709248  53.7997198  35.1137209
  13.6863005  25.7449603  15.5571544  12.9483938  25.7542777  14.9475324
  14.0639269  24.8704767  15.4627657  38.0852127  60.9112310  46.1618137
  37.7271819  60.0585079  46.4086151  37.8200936  61.4967060  46.8711567
  85.2552986  65.8520317   5.8317131  85.1772499  64.9298859   5.5872023
  85.9552765  65.8683348   6.4844054  63.4159946  42.7355051   8.9366227
  63.2134151  43.2404804   8.1491005  62.7784491  43.0358744   9.5843446
   1.0951184  77.9366922   2.1973455   0.4217253  77.4832010   1.6902758
   0.6189843  78.6172342   2.6731524  47.1971083   4.4624400  25.1242042
  46.7836571   3.6327472  24.8856664  47.5563383   4.3085364  25.9979868
   8.0906719  26.1981320  29.3479705   8.9785510  26.3630819  29.0306473
   8.2134730  25.8327699  30.2241349  62.6562071  74.9038696  64.3551016
  62.4916267  75.8362293  64.4959831  63.5303736  74.8709917  63.9665413
  30.5786061  47.2649479   3.6415422  30.7741284  46.6882896   4.3801016
  31.2323451  47.0374250   2.9804134  76.1341238  38.0818605  52.2639561
  76.9102573  38.0371141  51.7055225  76.3910246  37.6300335  53.0677509
  18.5138273  48.8679504  41.6674900  17.8239095  48.3026314  41.3201284
  18.6838424  48.5265541  42.5454283  26.0921788  81.1246872  18.6488795
  25.9829807  81.4062977  17.7405834  25.9851217  81.9253540  19.1623998
  73.8114548  30.8584142  29.9747610  72.8785372  30.8573270  30.1890039
  73.8434172  30.6426525  29.0427446  22.9130435  72.2391939  21.1160064
  22.9329133  72.5293064  20.2040458  22.1291900  71.6931820  21.1766267
   2.5725880  27.7887940   5.7660323   3.2924044  27.1685719   5.6501728
   1.7822440  27.2674704   5.6252801  60.2191257  33.5204101  61.1880684
  60.8150816  32.8180742  61.4484453  60.2501822  34.1426063  61.9148016
  81.8677330  19.6291459  66.1373949  81.8368149  19.7635353  65.1901770
  81.0758209  19.1288173  66.3342953  42.6051998  71.3211441  59.6873903
  43.4299612  71.5058804  60.1366997  42.2757053  72.1816444  59.4281673
  82.7578926  52.0177221  59.8688650  81.9058418  52.3702526  60.1256847
  83.2628345  51.9956112  60.6817484  78.8288450  74.1113520   6.9637656
  78.3946037  74.8623133   6.5591431  79.7623587  74.3151379   6.9067383
  82.9372215  60.9119511  57.1679878  82.8929138  61.8281078  56.8942690
  82.1420288  60.5165434  56.8108511  42.6892996   0.0199403  19.5499969
  43.1821442   0.7773105  19.8657954  43.3493233  -0.6633008  19.4325805
   2.1246888  26.9022465  24.1598487   2.0376332  25.9713936  24.3651843
   1.2372628  27.2505212  24.2459393  13.8796151  75.5195999   2.7491161
  13.7304878  75.6484985   3.6858010  14.5408559  76.1725903   2.5197747
  81.9001007  12.5823510  36.8967319  81.4943790  13.3249283  36.4492941
  81.2536049  12.3137009  37.5494909  66.9706106  79.5052958  25.0117779
  66.4423275  79.9810076  24.3707991  66.9826698  80.0740242  25.7816029
  20.2115130  74.9351645   5.2831686  19.9401665  75.3007126   6.1251777
  20.0371838  73.9972734   5.3618860  71.2912893   6.9408816  56.2897825
  72.1854019   7.2785318  56.3426113  71.3537979   6.1884224  55.7014561
  75.6366682  30.2757955  50.2149773  75.7565165  31.2149858  50.3556538
  74.6891928  30.1642871  50.1369333   9.1236365  60.3516912  14.5877671
   9.1840130  59.7097111  13.8803434   8.1936955  60.5744743  14.6303046
  58.0284452  57.0365953  46.2347507  58.0333614  57.4992371  45.3967953
  57.3712397  56.3493681  46.1250687  35.9877634  14.4011748  30.6645656
  36.3321972  15.2741170  30.4759669  35.6274867  14.1004550  29.8302984
  75.3895998  80.1113605  -0.3105548  75.9321356  80.8617973  -0.0682158
  75.4044056  79.5458174   0.4615629  30.2006578  25.0984240  42.3012257
  29.4475412  25.5398822  42.6938581  30.8912778  25.1713824  42.9599762
  25.7191706   2.5460866   6.8467045  25.5917072   1.6196144   6.6426605
  26.4072180   2.5523311   7.5121242  85.5921841  45.9689236  67.0785141
  85.5087852  45.2191591  67.6676941  85.8371162  46.6966152  67.6500940
  43.8880730   3.2027730  10.6426871  44.6730328   2.8952095  11.0959816
  44.1771746   3.3617166   9.7441375  52.4929857  16.2609923  58.6435080
  53.3788729  15.8986425  58.6552525  52.4260330  16.7025673  57.7968884
  11.7224133  13.0313158  25.4330468  11.5601838  12.1116924  25.2227950
  10.8510649  13.4257436  25.4705977  67.7218103   1.2503149   3.4879231
  68.3546352   1.9529529   3.3393937  67.0468235   1.6481820   4.0377659
  47.7317524  63.6996937  59.2274570  47.0288038  63.0646563  59.0902615
  47.2792625  64.5319653  59.3646002  18.3149695  73.6163759  10.5186880
  17.5945115  73.2293653  11.0160744  19.0645015  73.5768890  11.1127198
  81.0632133   6.6559410  32.4181128  80.5380917   6.8487656  33.1948400
  81.5023708   7.4818003  32.2148299   6.4297664  21.0072803  52.2181368
   6.1396408  20.6908226  53.0736589   5.7753944  20.6731296  51.6046476
  86.1960125  62.2740889  38.8596416  85.3423309  62.7048254  38.8157845
  86.5267086  62.3058510  37.9619455   1.3348152  32.3540139  49.0088320
   2.2581932  32.1651006  49.1759109   1.3130802  32.6591754  48.1018353
  26.1015320  34.8363566  18.1017518  25.5960298  34.7047853  18.9038658
  25.5944276  34.3906164  17.4232304  37.0804524  26.0000777   2.7921677
  37.8218007  26.4174771   3.2308161  36.7234278  26.6823936   2.2236532
   9.4458765  55.6699419  15.0208795   9.3764079  56.4032125  15.6322050
   9.7222656  54.9312687  15.5632865   9.9280405  74.1967487  59.1654253
  10.0166249  74.7111940  58.3630991   9.5229828  73.3774090  58.8810968
  55.9703302  16.0586083  66.4764738  56.4908075  15.4919016  67.0458412
  55.0713968  15.9491205  66.7865801  31.5230298  80.9787369  70.0919390
  30.9988332  80.6870365  69.3460417  32.2452617  81.4694977  69.6998072
  54.5813084  15.3130281   1.9542673  54.3534946  14.8515069   1.1472176
  54.3761158  14.6908009   2.6520920  23.0683374   2.6639542  59.7106266
  22.7115440   3.4389970  60.1444912  23.8123393   2.9930112  59.2062330
  64.1984987  36.1471844  19.1913033  63.8619375  35.2867484  19.4415247
  63.5491323  36.4888883  18.5766542  33.6657691  54.7968149  31.9155359
  33.3414936  54.0122032  31.4734292  34.4120288  55.0786829  31.3865018
  66.3003540  53.8902235  51.2455177  66.7434216  53.4829855  51.9898844
  66.8524599  54.6383858  51.0182142  69.6166849  48.8924170  67.2335815
  69.5205069  49.1893673  68.1384563  69.8585796  47.9693508  67.3088503
  15.5484307  66.1989021  65.2485323  14.8823202  65.5521488  65.0156450
  15.0595760  66.9041395  65.6726742  10.7316744   4.2299429  68.5130596
  10.2717125   4.8669899  67.9663992  10.4206073   3.3794370  68.2030439
  28.3949657   8.7858771   0.5330746  28.9721962   8.9503048  -0.2125843
  27.6149030   8.3860729   0.1485102  73.6433315  24.9722362  42.3574591
  74.4719982  25.4508901  42.3367214  73.8950205  24.0534735  42.2638702
  52.0719147  33.3217049  23.6000705  51.4781618  32.5833035  23.7359095
  52.5989103  33.0689764  22.8420258  65.8552647  58.2651329  57.9918623
  66.7122793  57.9338694  58.2602310  65.2856827  58.0906248  58.7410975
   6.0754359  53.5603809  64.4038630   6.3394588  54.3843508  64.8132467
   5.9894192  52.9470778  65.1337194  34.9926353  11.0097229  22.4967766
  34.9595451  11.6042197  23.2462502  35.8363104  10.5654001  22.5805783
  52.0429420  42.2303295  62.0689440  52.6898003  42.5964165  62.6720858
  52.5032711  41.5157032  61.6288948   9.2950064   9.9871224  49.1271782
   8.4900600   9.4815063  49.0147257   9.7972667   9.4962883  49.7776031
  44.7228670  66.1649370  12.0694280  44.6694994  65.9437084  11.1396742
  44.7931433  67.1194315  12.0848596  64.6873188  51.9589233  56.2678862
  64.7608089  51.1772108  55.7203865  65.2658796  52.5979900  55.8518410
  64.9754906  20.7167244  48.9746094  64.5973825  21.2271643  48.2585716
  64.2198849  20.4163337  49.4796467   0.3082699  81.6293709  61.8408918
   0.6959170  80.7583248  61.7558098   1.0399073  82.2314448  61.7050838
  63.5803175  30.8017874  48.6757755  64.2156553  31.3537383  48.2197857
  63.3827209  30.1007628  48.0546904  33.0287147  73.9844036   7.2769624
  32.8805900  74.9099302   7.0828241  33.3876181  73.6240387   6.4660621
  61.9548988  22.1792126   8.0873221  61.0368776  22.2898650   7.8398836
  61.9447136  21.4768195   8.7375313  67.0026159  26.8956137  69.7618246
  67.5422287  27.6743746  69.8981237  66.1637449  27.2367573  69.4517517
  13.7322545  26.3185668  55.4427481  13.5236835  26.3149238  54.5085526
  13.4976447  27.1986485  55.7371044  63.5317278  74.0486622  54.9288654
  62.7711105  74.3360233  54.4237709  64.1966438  73.8513041  54.2691946
  75.0338840  43.8744020  45.4830647  75.6376219  44.5254517  45.1254749
  74.6937227  43.4157515  44.7148466  56.5746260  32.6177526  66.3330126
  57.4111986  32.4770522  66.7763901  56.4967346  31.8795729  65.7286453
  41.2325096  20.1614475  21.0743022  40.7277966  19.5636272  20.5228424
  41.9099188  19.6108365  21.4669514  30.0021958  63.6553574   8.1129009
  29.5689487  64.0721703   8.8577449  29.3827605  63.7536383   7.3898029
  16.9607663  30.6995034  19.1853845  17.0164180  30.9220147  20.1146984
  16.0763240  30.9608436  18.9290762  76.1557388  69.9609613  15.7477152
  76.4807510  69.5827579  14.9306703  75.3259325  70.3731632  15.5074215
  49.2337561  19.6251881  22.5315332  48.9173698  18.7992096  22.1656179
  48.5124922  19.9368310  23.0782390  27.5854182  71.7310143   2.4690019
  28.4126782  71.2821674   2.2946273  27.0650816  71.5900469   1.6780469
  20.1438379  27.9205012  69.3147802  19.4172823  28.3610058  69.7555780
  19.8857832  26.9990706  69.2901516  55.7274914   0.7214110  34.5398426
  56.1495113   1.5492581  34.7696280  55.9666443   0.5766683  33.6243701
  64.1728354  22.4680853  51.2572908  63.7929010  22.9029107  52.0207119
  63.5964584  21.7211843  51.0955524   5.3846490   6.9376141  62.7864838
   5.4491693   6.1151487  62.3010778   5.1004314   7.5786215  62.1349001
  61.3883448  31.1919618  52.7548313  61.7562294  30.3254128  52.5816774
  61.4453411  31.2908268  53.7052011  67.0093060  14.7340798  30.2719045
  66.5635061  14.5582759  29.4432974  66.3199186  15.0604391  30.8502388
   9.9057436  69.0163994  56.1131382  10.1197565  69.9027729  55.8219814
   9.9693513  69.0558434  57.0674038  14.8113132  41.1369371  31.4174438
  14.5981300  40.6475401  30.6229162  14.3488932  41.9690514  31.3175201
  46.2500715   1.3577425  32.7861595  47.0725822   0.9759260  33.0926371
  46.3449144   2.2956711  32.9520750  67.4724102  80.7560730  52.9529667
  66.7178822  80.2117252  53.1779337  67.9741621  80.8176708  53.7657881
  55.3367853   7.4784678  33.8957739  56.1153603   8.0335987  33.8524199
  54.6195936   8.0855930  34.0781760  49.2255592  14.8886716  20.0922751
  49.0015221  14.6478653  19.1933584  49.9317932  14.2886889  20.3320289
  70.2454948   1.1633868  70.1764536  70.3745461   0.8937147  71.0857677
  70.9759903   0.7656816  69.7027063  62.0603371  72.7877331  41.4820957
  61.8341303  72.4807024  40.6041479  61.4991808  72.2776651  42.0661926
  38.6368227  64.3820333  50.1948977  39.3685484  64.3507385  49.5785952
  38.5024118  63.4703064  50.4536009  85.2788353  34.7628856  46.4438009
  84.8871326  35.5326653  46.8564081  84.8085880  34.0214300  46.8250370
   8.5857701  61.0164833  58.3504248   8.0028617  61.7756462  58.3391380
   8.7765622  60.8747721  59.2776489  28.7418747  49.8651886  19.5271909
  29.5491219  50.0374222  20.0118756  28.0700874  49.7791958  20.2036095
  78.4457541  76.9799662  45.3373766  78.0303717  76.1422873  45.5422592
  79.3437672  76.8860769  45.6551647  72.8213263  63.1218195  54.5278549
  73.3274841  62.5778437  55.1312780  71.9106388  62.9862213  54.7895765
  12.0618320  32.6481724  18.6549461  12.3519242  33.4840465  19.0201735
  11.3808084  32.3473716  19.2565751  77.8742266  15.6654942  65.8782816
  78.0563831  15.5304432  66.8082333  76.9905233  15.3190899  65.7545471
   3.8923833  12.0636415  53.6348581   3.2381308  12.3864174  53.0151796
   4.7074333  12.0426655  53.1333733  80.5407143   9.8553067  61.3420153
  79.7361708   9.3447340  61.2511206  80.4399490  10.5741942  60.7180929
  62.7020788  23.9804053  41.7296314  63.1282234  24.7275639  41.3096523
  62.6194954  23.3291125  41.0330486   8.6272842  26.4556599  34.9305224
   7.7563590  26.1931348  34.6325254   8.4610093  27.0504785  35.6618047
  84.5937443  13.2660663  59.5487452  85.1132393  12.4632812  59.5923376
  83.9065838  13.1425345  60.2035522  67.9895210  43.5713673  45.7811499
  67.3314238  44.2570925  45.6674480  68.6022329  43.7051582  45.0580215
   5.6459963   5.3388774  54.4246769   6.3163662   5.6016356  55.0553846
   5.8510602   4.4257727  54.2236280  16.3899922  77.0747423   1.8274260
  17.0902205  76.9762754   2.4725743  16.8320882  77.3947859   1.0410704
  37.0646477  73.5883427  22.7905846  37.5647140  73.7709379  21.9950819
  37.6686645  73.7909317  23.5049772  67.3402357  13.7192166  35.6998706
  67.9888916  13.0231464  35.8045769  66.7472506  13.3940876  35.0224543
  85.5192566  30.7514000  14.6331668  84.6935558  30.4101777  14.9767101
  86.1568737  30.5774522  15.3255630  12.7165365  53.5741806  47.4373722
  12.0945740  52.8576994  47.3107004  13.5765910  53.1592035  47.3715448
   4.2641139  68.5367203  44.3001461   4.2257476  68.3079529  43.3714819
   3.3627722  68.4410572  44.6078205  68.4100056  19.0245521  45.4388046
  68.6175156  18.8535738  44.5201445  68.1393242  18.1743765  45.7854509
  41.5598154  43.2579374   1.1552070  42.1695375  43.8580275   0.7258328
  41.8418884  42.3877096   0.8734769  53.4309196   2.6034480  51.2229633
  54.2043638   3.1195301  51.4502764  53.2779121   2.0509119  51.9894695
  77.0912266  43.8636923  30.7062387  77.2868824  43.9535904  29.7735715
  76.2302780  44.2688227  30.8104920  10.4643881  20.8624792  70.1837826
  11.3873649  20.6605029  70.3372431  10.0771570  20.0277376  69.9201679
  67.4462652  12.4814653  61.5941811  68.3617496  12.2837508  61.3966227
  66.9934702  12.3811173  60.7568407   9.9647272  36.6528749  50.9208107
   9.8607999  36.4335752  51.8467379  10.1183546  37.5976419  50.9142113
  33.2688570  68.0848932  21.2554669  32.4174094  67.9617977  20.8358026
  33.7296343  67.2587395  21.1092329  16.1426461  56.9268847  14.9404407
  16.5087080  56.0962677  14.6366191  16.8549955  57.5568342  14.8311007
  37.3862982  51.7517853   8.0181897  37.2819924  52.7018166   8.0710500
  36.6500139  51.4595270   7.4808788  83.6030388  66.1608839   8.4649956
  82.7957439  65.7759094   8.8060290  83.4713459  66.1931753   7.5174481
   3.9679167  63.1651258  51.1593103   4.7602063  62.9088306  51.6313505
   3.5034457  62.3422480  51.0064316  86.3007355  49.6604109  60.2731180
  85.9079647  50.4661894  59.9374390  86.8866062  49.3702221  59.5739937
  68.3742619  76.8208551  56.5485954  68.1070614  76.1059809  55.9708452
  68.4233379  76.4213419  57.4170494  83.7131405  15.7528114  56.0473156
  83.7457085  16.5678811  56.5481472  83.2232475  15.1484478  56.6049719
  57.4204922   9.5169032  22.6000142  58.0344200   8.9099205  23.0134082
  57.5102377  10.3271055  23.1017613  45.4242468  32.0773125   1.6626458
  45.2127218  32.6702571   0.9415998  45.4059887  31.2051201   1.2687206
  21.6611814  45.2362633  63.9615965  21.9130015  44.3217659  64.0901184
  21.7614937  45.3823853  63.0209494  68.3895636  37.5317526  62.8442621
  68.2914972  36.6687036  63.2464600  68.7044239  37.3490620  61.9589806
  21.2240362  36.6333342   7.9270387  20.7088351  35.8857965   8.2303303
  20.6136966  37.3703218   7.9508364   6.4464712  21.5764451  70.1121521
   5.6651658  22.0264411  70.4335499   6.3849747  20.6958461  70.4822779
   3.0056694  65.5711699  45.9292412   2.5403118  65.2415133  46.6980076
   2.6240391  66.4344740  45.7702065  14.5823956  12.5255275   4.6875474
  14.9918747  11.7670345   5.1037788  13.8703489  12.1565986   4.1649458
  14.8868251  34.4706702  39.1541290  14.4550490  34.9418950  39.8666906
  15.4276943  33.8147140  39.5939159  60.6109476  59.9884892   3.1895730
  59.8158407  60.4885530   3.3738947  61.1643267  60.5924463   2.6943570
  17.5556386  22.9947948  32.7263069  17.8932118  23.7860179  33.1461143
  17.2644639  22.4437881  33.4528351  65.4673433  80.9959888  69.4154072
  65.7968330  81.5114212  70.1516104  66.2204456  80.9031773  68.8319206
  84.6626759  40.2863979  55.7438946  84.7182846  40.5554199  54.8269606
  85.5730247  40.2438498  56.0366440  63.8471317  24.1377592  60.0533152
  63.9578533  24.4296241  60.9581852  63.3627939  23.3152175  60.1245260
  74.5775890  33.5854626  54.3297863  74.2993164  32.6862144  54.1561556
  74.9772596  33.8750863  53.5096598  29.1029668  76.9028091  13.3172965
  28.6490965  77.6254225  13.7509584  29.4568467  77.2886992  12.5159919
  84.2416859  18.0032504  44.2306662  84.8881626  18.5629654  43.8005161
  84.6591663  17.7423263  45.0515556  20.1969337  46.5852737   0.7634711
  21.0777688  46.7615747   1.0940446  20.2219868  45.6675291   0.4926361
  70.1573944  38.0869818  50.2650452  69.2983627  38.3931780  50.5558062
  70.6461048  37.9402804  51.0749006  15.1190495  54.2307234   7.3624015
  14.7969365  54.9025249   6.7614341  14.7790980  53.4092045   7.0077556
  85.3703117  20.7558584  27.1988344  85.9454632  20.4018402  26.5205216
  85.5845451  20.2498102  27.9825783  82.1251488   4.0710130  68.8564825
  81.5074635   3.5386878  68.3551598  81.7913151   4.9645275  68.7763357
  74.6156979  19.5756888  43.8616991  75.0238466  20.4207182  43.6730909
  75.3518391  18.9794481  43.9988995   4.1228205  19.0456474  46.3757133
   4.4173738  18.2770705  46.8643475   3.7432083  18.6881363  45.5730247
  20.6031966  51.1073256  52.6066113  19.8966205  51.5771675  52.1636248
  20.4770017  50.1924324  52.3550749  14.5948470  75.3474617  17.3844051
  14.6772289  74.4989204  16.9491756  13.7439728  75.6810093  17.0998156
  77.8916073  35.8667326  53.3599997  78.4357786  36.3887477  52.7704191
  78.2174158  36.0764670  54.2352676  37.7667451  49.1963625  44.9222803
  37.0158148  48.7749863  45.3403473  37.9053998  48.6957073  44.1183233
  77.1108437  64.8295355  24.2088223  78.0535984  64.6758795  24.1468310
  77.0340395  65.7519531  24.4526887   0.5052970  40.5040216  33.1649446
  -0.3812034  40.1823902  33.0009294   0.9124601  40.5360365  32.2992516
  42.1589422  53.6156225  24.3920922  42.4654961  53.6925316  25.2956080
  41.9102144  52.6957989  24.3010378  42.6329374  64.3289566  26.0364795
  42.5251865  63.3784389  26.0702372  43.5807514  64.4624329  26.0286522
  27.4659872  18.4771669  39.1213441  26.7994761  18.8048446  39.7251844
  27.5220394  19.1471231  38.4399867  70.9400177  15.7741034   4.3321410
  70.3922129  15.8401263   3.5499755  71.8194199  15.6033182   3.9949274
   8.8470036  11.3667953  15.1413405   9.2412251  11.2806892  14.2733514
   8.1101918  11.9638765  15.0115955  83.2861519  39.1190147   7.6251012
  83.7083817  38.2833052   7.8239530  83.7187576  39.4219542   6.8267787
  58.0034590  77.8366852  24.4391131  57.1162271  78.1951666  24.4625354
  57.9560757  77.0448828  24.9748707   6.1686677  19.9889839  12.9752326
   6.6586751  20.6631446  13.4460104   5.4452205  19.7657549  13.5609162
  80.3187466  34.3009806  31.1091161  80.3688526  34.8831820  30.3509855
  81.1299229  34.4640899  31.5903878  77.8888273  40.0747681   3.1253660
  78.1181240  40.1254606   4.0533116  78.3303881  40.8254337   2.7281821
  73.7606049   8.0510378  47.4981785  74.6097469   7.6139051  47.4341393
  73.1351137   7.4099368  47.1605587   1.1288252  25.8431506  36.1024761
   0.2149960  25.7708383  35.8269429   1.5458871  26.3624811  35.4150271
  46.3509560  11.5003884  59.4292593  47.0645094  12.0827937  59.1687298
  46.1866045  11.7184937  60.3466749  27.7195978  31.7873597  14.9561799
  26.9566178  31.2546349  14.7319102  28.0215716  32.1379757  14.1182590
  86.5834332   4.6557704  43.1031132  85.6346130   4.5753184  43.0056334
  86.9431877   4.0746671  42.4329424   0.6380392  35.6653404  21.2635326
   0.0584093  35.3347373  21.9497991   0.1775169  36.4246345  20.9062839
  81.2925816  22.7542734  49.9050331  80.3608608  22.7576327  49.6856833
  81.5352821  21.8283510  49.9051523  51.4308691  14.1554391  10.0968397
  50.8796835  14.6173310   9.4651097  50.8125496  13.7716472  10.7186234
  37.1081400  11.5685785   5.0307184  36.5160036  12.2996879   4.8544112
  36.6715026  10.8085895   4.6460143  32.7857327  13.5272181  52.9696465
  33.4258914  14.1323018  53.3442163  32.4510789  13.0373669  53.7208366
  22.7205729  33.9487576  68.5612011  22.4380064  34.5938778  67.9129648
  23.1827116  34.4618630  69.2240620  51.7891455  66.4606571  11.5902734
  51.8890953  67.2272348  12.1547163  52.0472765  65.7219791  12.1415997
  71.8798733  66.7575073  57.2556734  71.6697598  67.2560740  58.0453014
  71.6419840  65.8557796  57.4713802  41.2240124  73.3399677  30.3024364
  40.7206297  72.9912186  31.0381079  41.6944647  74.0892029  30.6678867
   7.1044278   5.5404574  27.1797657   6.2634820   5.3344655  26.7715859
   7.6092720   5.9658492  26.4866519  23.4960532   3.0242985  16.5939248
  24.1792846   2.5610620  17.0785260  22.7084970   2.9152173  17.1269250
  59.5856428   3.4477246   4.1274312  58.6289644   3.4278882   4.1520077
  59.8539495   3.1364861   4.9919397  14.5049453  13.9253795  34.2300272
  13.9221466  13.5602963  34.8958302  14.2410064  14.8426163  34.1576099
  15.4875541  18.8514197  48.7066889  16.3888121  19.1618645  48.7938166
  15.2125859  18.6595738  49.6032524  64.3539546  81.4543976  25.7152343
  64.0025065  80.5695014  25.8135962  64.5538429  81.7334133  26.6087818
  42.9166889  73.1163549  25.0292230  42.2234631  72.4828577  25.2145481
  43.3701515  73.2265282  25.8649659  65.5090094  13.2692647  39.2132640
  64.6630621  13.2276154  38.7673140  65.7818747  12.3554373  39.2950916
  22.1776199  52.8422451  64.5483398  21.6133451  52.1648884  64.9211836
  21.6467977  53.2444859  63.8608408  57.4006605  73.3098984  11.4425278
  57.7395725  73.8240385  12.1753502  56.6439438  72.8481293  11.8036163
  80.6395626  28.8537407  39.8330975  81.0416412  28.6896920  40.6861210
  80.5617142  27.9870391  39.4343472  17.9840088  30.7181406  60.1352882
  17.1495986  30.7782412  60.6004524  18.2068765  29.7876453  60.1624298
  47.9116964  36.0237169  65.3969717  47.0393991  35.8369541  65.0499201
  48.0344629  36.9607282  65.2447557   1.3268064  29.3868470  58.4122515
   0.4230978  29.4066024  58.7271357   1.2480614  29.3849444  57.4582958
  85.9410858  28.0068064  24.4129086  85.7872677  28.4467912  23.5768580
  85.4635048  27.1804619  24.3401194  82.9201794  10.7931340  13.6754036
  82.8517628  11.4411104  14.3766010  82.2919846  11.0869479  13.0156457
  10.0877833  27.2562456  53.4388685   9.4763923  26.8067861  54.0223217
  10.0618970  28.1700230  53.7227249  58.3264732  41.7414665  24.3175697
  58.1569576  40.8073425  24.4396687  58.5984278  42.0504999  25.1817322
  20.1633620   3.7160975   9.8665971  20.8248997   4.4007188   9.7671330
  19.3770802   4.1822630  10.1506436  67.7427149  25.9000492  27.2706842
  68.4007168  25.7798028  26.5859866  67.7963400  25.1024222  27.7971315
  21.9059134  17.9847407  68.0386353  22.4728656  17.7575099  68.7756300
  21.7434120  18.9224029  68.1416702  10.5373430  24.4435906  35.1951289
   9.9041450  25.1587486  35.1331472  11.1399615  24.7165322  35.8869267
  31.2169790  35.6974554  32.9816628  31.8933177  35.5220985  33.6359143
  30.5572104  36.2086463  33.4503007  77.3720360   3.1956887  14.4715035
  77.6272297   2.2903302  14.2942083  78.0526018   3.5258850  15.0580466
  14.2040265  31.4697003   2.1197660  14.4038022  32.1678090   1.4960945
  13.2512152  31.4930511   2.2082943   0.3096879  21.1273861  52.4465418
   0.1952055  20.2623034  52.8399324   1.2304307  21.3399434  52.5991297
  85.8397198  35.6864524  12.0249367  85.0603676  35.1621008  12.2090781
  85.9367561  36.2492204  12.7931213   3.9608347  13.1331933  40.3853941
   3.7824607  12.6863372  39.5579052   4.7969735  13.5767448  40.2426863
  76.7460680  65.7632160  20.8619547  77.2195053  66.4986849  20.4731393
  77.4000502  65.3132868  21.3968396  56.8529415  30.5940294  25.2611876
  55.9958410  30.1740909  25.3337479  56.6774082  31.4205098  24.8113585
  16.9400644  14.1235757  49.8200512  17.6428640  13.5058761  49.6181822
  17.3385942  14.9860919  49.7039890  32.7724051  19.5596027  26.8024206
  33.6530542  19.7861743  26.5034986  32.3899627  19.0718639  26.0729837
  50.7509184  58.0528927   4.7119352  49.9473047  58.3290482   5.1525927
  50.8039904  58.6129332   3.9374858  20.2822709  33.4762764  13.6300159
  19.8342144  34.2311072  14.0117323  20.7860661  33.8398385  12.9018354
  67.1074533  65.4231405  22.1825624  67.8135252  64.7844696  22.0835948
  66.3290453  64.9722385  21.8554521  74.8550177  23.0010223  46.9850826
  74.8892832  23.7126184  47.6243687  74.1699171  23.2639790  46.3704872
  61.8564081  22.9613876  32.1282291  62.3805761  23.6351275  31.6951561
  61.6704082  23.3228517  32.9948211  13.9480948  31.1227179  34.4617486
  14.6131074  31.5033054  35.0354576  14.4132078  30.9374189  33.6459279
  74.3969774   6.8046874  22.7337217  74.3876648   6.3761079  21.8778801
  75.2872467   6.6708940  23.0589151  25.8763433  39.1971588  61.3903761
  26.3457060  38.4645796  60.9913015  26.3463664  39.3664718  62.2068596
  48.0162191  69.9207306  15.6373191  48.7132931  70.3827381  16.1030126
  47.3942423  70.6068802  15.3953040  76.2227964  32.6160741   1.1349802
  75.4587603  32.1475792   1.4711218  76.4270163  32.1791506   0.3081648
  15.3743875  22.8396487  55.4783583  14.4482255  23.0752015  55.5328703
  15.7637596  23.5234427  54.9333382  14.9916637   7.4021304  40.3201008
  14.5836055   6.5484363  40.4647589  14.3562579   8.0320400  40.6602526
  17.4870372  30.4176641  64.5634174  17.2340143  30.4595923  63.6412191
  17.2825217  29.5205879  64.8273468  64.8831844  13.7397921  24.3552637
  65.7745171  13.8860893  24.6720529  64.3248272  14.1646409  25.0063944
  23.6515558  45.5285661  70.2876335  24.1382826  45.1444604  69.5583947
  23.8285959  46.4672150  70.2257766  82.6928711  75.1962709  34.7171831
  83.3512497  75.8110905  34.3935180  82.2678280  75.6587601  35.4394555
  31.2373948  25.0011373  16.8050337  31.8685269  24.7074461  17.4620330
  30.4227495  24.5569062  17.0400763  21.4486599   9.9419081  17.2135556
  22.0180750   9.3154085  17.6602066  21.2987185  10.6321335  17.8595722
  40.1846170  36.5419912  69.3713903  40.6194925  36.2271810  68.5789204
  40.7386065  36.2320614  70.0878191  76.1796713  12.3495543  22.1196508
  75.8307171  12.9607701  22.7684021  77.0913601  12.2184587  22.3801637
  77.9435015  18.1514764  23.7131667  78.7661982  18.5241401  23.3961177
  77.3344803  18.8898623  23.7238669  18.4735191  12.0570350  11.9595182
  17.7683687  12.6427555  12.2350669  19.2455041  12.6203835  11.9055879
  50.9051085  75.2726507   6.2134081  51.3301182  74.5163584   5.8089119
  51.5100288  75.9982491   6.0591203  47.3771143  68.2468319  29.8717690
  48.0082846  67.6022959  29.5517254  47.3228168  68.0819464  30.8130956
  84.6249580  42.1005440  21.0614681  84.7062874  41.3906765  21.6984177
  85.4231453  42.6165867  21.1747360  46.3917065  74.1744280  13.9191389
  45.9335184  73.3709908  14.1656840  45.7239532  74.7085953  13.4890115
  25.7474828  36.1235142   0.7678726  26.6491055  35.8977795   0.9966706
  25.2715087  36.0785174   1.5971230  50.1018906  73.8535070  39.7135115
  50.2760935  73.2179451  40.4077339  49.9041891  73.3195686  38.9440584
  50.5123568  80.7763100  12.5253034  50.1094675  79.9945688  12.9031909
  51.4374781  80.7067108  12.7609622   0.3269533   1.9984873  30.6831741
   0.1237646   1.3965182  29.9672270   1.0170621   2.5621915  30.3335762
  19.3496454   4.5520186  39.2704487  18.7533844   3.9144528  39.6631503
  18.7739956   5.2123952  38.8847518  11.5766466  12.2437453  63.5101604
  10.6920266  12.3553276  63.1619835  12.0628774  12.9968834  63.1746101
  32.7078295  53.7617397  21.5216136  32.3815060  54.6106768  21.8200350
  32.4311018  53.7068462  20.6069326  21.8386102  42.7295971  57.5473547
  22.6769614  43.1297112  57.7782440  22.0682287  41.8523312  57.2409058
  19.5277202  49.1460896  63.0447865  18.9577401  48.5614395  63.5443258
  20.2315784  48.5805321  62.7270412  54.3301678  72.9232502  11.9664431
  54.6685648  73.6273289  12.5196075  54.0486145  73.3631611  11.1642981
  41.2005663  50.3118849  70.3874254  41.7881298  50.8345461  70.9331608
  41.7844725  49.7590351  69.8681498  68.9730072  69.3314314  44.3823624
  69.8624325  68.9808655  44.4298887  68.8251495  69.7267342  45.2414942
  39.1326046  36.4154363  55.6396627  39.1507173  35.4585552  55.6565523
  40.0171471  36.6670847  55.3741598  54.0391588   3.5663506   9.4208515
  54.4800329   2.7887398   9.0785271  54.4398022   4.2962170   8.9486092
  66.9475508  66.8002748  19.7114480  66.7393112  65.9285545  19.3753362
  67.1213531  66.6627169  20.6426311  48.1912518  53.5174942  21.7058921
  48.0147028  53.5269547  22.6466227  47.6389408  52.8136539  21.3656116
  47.4369097   5.6096494  65.1120090  47.6455069   6.2857294  65.7567072
  48.2753849   5.1852447  64.9301672  28.6343479  76.2202215  40.6605530
  27.7497745  75.8647585  40.7466221  28.6173487  77.0307255  41.1695004
  60.0845766  69.5920658   5.7631427  60.4849720  70.4452848   5.5960155
  59.2800522  69.5993328   5.2445710  48.5147238   9.5916855  12.0751119
  48.8264847  10.1803756  11.3877380  47.6243830   9.8902494  12.2605252
  39.7529650  27.4252439  52.8848648  39.6060300  28.0615330  53.5847092
  38.9279985  27.4080372  52.3997164  56.8411684   9.1169828  57.2297382
  56.5998459   8.2283628  57.4911785  56.5833759   9.1743040  56.3096905
  51.8304014  49.6153688  63.4049320  52.1749163  50.4948282  63.5601521
  52.2784758  49.3189812  62.6127148  35.1237202  62.4829483  33.4128284
  34.5531201  62.3110485  32.6637650  35.3674245  61.6142797  33.7325978
   4.9882266  23.6190820   4.4521961   5.4866999  24.0490890   5.1470697
   5.6540275  23.2893872   3.8486713  22.0679092   9.6685392  66.0426617
  22.3245335   8.7667286  65.8500099  21.3215160   9.5836371  66.6358900
  26.5018773  11.7480886  68.3249712  26.8346548  12.2377348  69.0771246
  26.4647532  12.3918140  67.6175308  81.1328983  51.4396811  11.6180205
  81.0815144  52.3574829  11.3511324  81.9626427  51.1306000  11.2543845
   2.4635053  62.6409531   0.3361278   2.3912600  61.9035006   0.9420809
   1.5634333  62.8124714   0.0592112  45.0673246  71.8794298   5.4272830
  44.1186905  71.7628384   5.3750318  45.1908731  72.5313044   6.1172312
  70.8020639  29.5782304   1.1306280  71.2456322  29.3423057   0.3158784
  69.9356842  29.1781282   1.0561948  19.2639029  13.2517600  44.5972967
  20.0181746  13.5071850  44.0662050  19.6412289  12.9787266  45.4335451
  16.7392480  14.1267550  52.8356314  16.1072791  13.7108171  53.4220123
  17.5496006  14.1631186  53.3438063  59.3685865  16.9592917  60.8911848
  58.5200882  16.7180955  61.2628126  59.8528576  17.3372340  61.6252613
  83.5805416  73.0830860  53.6013699  84.3131351  73.5267544  53.1739378
  83.4379101  72.2957468  53.0760288  68.1383705  48.0048704  29.7896481
  68.9267492  47.4843407  29.9437070  68.4256792  48.7080956  29.2072725
   6.7147803  49.9635410  25.2070570   6.9889265  50.7120132  24.6770883
   6.9558018  50.2026510  26.1020231  28.8125539   2.2865316  44.4195604
  29.3238163   2.9152915  43.9101458  27.9011464   2.5132105  44.2346811
  81.2470818  66.2784958   1.4066496  81.4600945  65.4892635   0.9086844
  80.8086872  65.9542799   2.1933681  84.1134930  69.6610451  15.0125003
  84.4729900  70.0960779  14.2393613  83.3119106  70.1458549  15.2091098
  30.3677821  31.7453909  53.4166527  29.8645782  32.4298334  53.8577414
  31.1774659  32.1791935  53.1474686  75.8539677  59.3987226  30.6005216
  76.4411783  58.9984941  31.2417984  76.1880922  60.2892256  30.4928374
  23.4113717  35.2708769  58.1693172  23.6847687  34.8660278  57.3461628
  22.4550009  35.2721834  58.1295490  47.1189928  11.7758179  68.5665035
  47.9837418  11.9722188  68.2061291  46.7179632  12.6334059  68.7077475
  32.3097777  38.0986619  63.8764858  32.2348237  37.5807762  64.6779871
  31.6197896  37.7591133  63.3065224  54.4030571  79.0445328   7.6071680
  55.0575829  79.2764282   6.9483435  54.8961163  78.5742998   8.2794815
   9.7785968   7.3448586  54.3625069   9.5533311   7.0212871  53.4902763
  10.7127905   7.5465494  54.3092632  40.9344482  13.2278442  39.6452999
  41.7726851  12.7900863  39.7934842  40.4830265  13.1722629  40.4875326
  39.4389081  37.5684285  60.7633972  39.9577403  36.8041348  60.5125952
  39.0648174  37.8843427  59.9409103  12.2264969  69.1814423   5.0672245
  11.8589342  69.1115856   5.9482747  13.1686759  69.2754841   5.2075315
  60.7496023  80.5983543  21.9538379  61.4687252  80.8050728  21.3568783
  60.6458664  81.3871479  22.4860716  55.1173401  68.0538559   1.4778800
  54.9240208  67.8206539   2.3858871  54.2766809  67.9769087   1.0266498
  59.7137833  66.8138504  25.7981086  58.7903309  66.6150284  25.6433868
  60.1261568  66.7198610  24.9394202  16.5630805  23.1258416  63.1739140
  16.2777102  22.9028010  62.2878838  16.7711341  22.2833085  63.5777473
  12.7533579  26.1000872  52.8622913  13.2381701  26.3946199  52.0912933
  11.8902326  26.5037322  52.7711058  84.5312881  77.9239464  30.8804250
  84.6655655  78.6810160  30.3102970  83.7179947  77.5288296  30.5663180
  71.2927961  71.4655161  36.7725849  72.0704985  71.1684942  36.3001537
  70.5641985  71.2631226  36.1857152  58.8501692  59.6309376  30.0549173
  59.3315554  60.2886438  30.5568314  59.1919327  59.7117424  29.1644692
  54.4096375  66.4708424  24.2103052  55.3383160  66.5564537  23.9947653
  54.2427921  67.1763468  24.8353314  64.7794294  69.4168520  18.6916399
  64.2847347  68.6750269  18.3434963  65.5495739  69.0209150  19.0994883
  16.0087073  22.7877355  60.6777906  16.8140340  23.2639837  60.4756355
  15.6246090  22.5929809  59.8229408  60.7311964  39.6051574  62.3435116
  61.5805006  39.6273398  62.7844429  60.2053785  39.0002537  62.8668022
  14.1575253  23.0397296  68.2697725  14.2558253  23.3024168  67.3545837
  13.4793496  22.3644137  68.2535982  60.7276678  78.4425640  38.9425492
  60.3813934  79.2953825  39.2052794  61.6699362  78.5843325  38.8516474
  69.0041876  60.1065683  42.9793024  68.2207966  60.4155016  43.4343672
  68.7434530  60.0580740  42.0595741  69.0689659  65.6931400  25.0564098
  69.1982746  66.0946369  24.1971588  68.1607008  65.8952570  25.2809811
  51.0793447  64.4370222  48.5246038  50.5988503  64.3176270  47.7053976
  51.9887161  64.5614433  48.2529449  28.3339596   6.4909285  57.0801115
  27.5528646   6.7317051  57.5782537  28.4225273   7.1826363  56.4244223
  16.6494441  30.5403709  35.5789256  17.4446845  30.5507040  36.1115766
  16.8553674  31.1000657  34.8302126  19.7132039  22.2710347  62.9546261
  19.3429005  23.1508327  62.8834724  19.5249546  21.8628740  62.1095228
  27.7473760  44.2960310  60.6004381  27.9079366  43.8996315  61.4567804
  27.3366332  43.6000013  60.0875378  59.3343878  56.9703627  62.5383854
  59.4356728  57.6024532  61.8267441  59.9695969  56.2823725  62.3398638
  83.3687496   5.9562457  45.5889082  83.8295174   6.6944504  45.9876204
  82.5138378   6.3110340  45.3450012  82.5865936  23.7302494  39.0200138
  81.7276955  24.1314030  38.8873363  82.4772072  23.1813502  39.7965288
  85.2929497  43.3989620  29.3368602  85.5078125  44.3016386  29.1018271
  84.7378349  43.4790802  30.1125240  23.6394620  29.8049903  46.2471294
  24.2971277  30.3653765  46.6590452  22.8436732  29.9545884  46.7575932
   6.7030585  15.9247875   5.5684960   6.0320520  15.4361093   5.0918663
   6.6072577  15.6392848   6.4770895  55.4776621  65.3872871   7.1850872
  54.7543907  65.9045935   7.5393611  55.3911686  64.5332003   7.6085067
  11.5138423  75.8875561  37.6716161  10.6750643  76.2196922  37.9915690
  12.1658945  76.2942791  38.2422614   5.0940615  54.2507792  20.6218672
   4.4806570  53.5233116  20.7255912   5.5398768  54.3104839  21.4668036
  66.3235760  14.5364213  22.0386028  65.7947874  14.5665860  22.8359127
  65.7958174  14.0312219  21.4201546  21.4354014  70.7740641  69.0123034
  22.2014093  71.0645676  69.5073509  20.8316040  70.4435301  69.6774387
  62.3100615  62.6869011  64.7529650  61.5408134  62.1190214  64.7082233
  61.9695139  63.5652781  64.5835114  61.1657858  59.3114328  11.8711662
  60.4600763  58.9557552  12.4112558  61.9642687  59.1168261  12.3618627
  67.4181795  32.9444504  62.9306173  67.5454950  33.4906244  63.7063217
  67.7819538  32.0933533  63.1746197  61.8238449  15.5326343  60.5260897
  61.2748384  16.2961411  60.7046413  61.4015770  15.1026344  59.7824383
   4.3286783  13.4694874   1.5823928   4.6957961  13.9755034   0.8575447
   4.8789784  12.6878440   1.6317300  10.3334332   2.4291235  43.6865854
  10.5484343   3.0907422  44.3440533  10.9395730   1.7097497  43.8635778
  47.0099449  75.7997179   3.6391452  47.4275446  76.5587664   4.0461954
  47.7366734  75.2195215   3.4122768  53.5186625  77.5791502  17.4329054
  52.9009390  77.6904154  16.7102253  54.0216064  76.7987156  17.2000861
  21.7402673  30.2162457   2.8676066  22.1522617  30.2493548   3.7309691
  22.0453382  29.3921518   2.4880862  11.9875254   0.4637718   9.2856610
  11.5877881   0.0821590  10.0672102  12.1131005  -0.2782917   8.6942184
  18.4433222   2.9458180   1.6828150  17.7794611   3.5203022   2.0642442
  18.5696685   3.2818821   0.7954991  23.9630628  12.7475631  63.3195353
  23.1578064  13.2469893  63.1840134  23.7035489  12.0253170  63.8915873
   9.6663094  55.0942802  44.1150665   9.8266560  55.9181261  43.6548519
  10.3887284  54.5260572  43.8477373  56.2859678   1.3237210  14.8432112
  56.2562227   0.9208049  13.9754522  57.2049522   1.5620825  14.9652338
  29.5128202  29.6669602  68.9308357  28.7810087  30.0190687  69.4374943
  29.1880536  29.6357226  68.0309582  27.0210147  27.7010560  58.1344748
  27.1515822  27.8248143  57.1943283  26.5270495  26.8839598  58.2021666
  49.7789383  64.1546202  27.3104644  50.4136944  64.5899296  26.7414141
  49.6162415  63.3117104  26.8870616  53.5186481  67.1189642   8.2650733
  52.8058100  67.2039890   8.8982141  53.6313152  68.0012417   7.9113436
  28.4593987   1.3221565  20.2349329  29.2099166   0.9803827  20.7208800
  28.8229966   2.0242220  19.6953666  76.0315084  52.1990824  19.5081508
  76.1491251  53.0110884  19.0151560  75.1961756  51.8494320  19.1979945
   5.9916174   8.0363721   3.2161582   6.6469228   7.4754357   2.8012401
   5.4883921   7.4439824   3.7747911  40.9558439  29.4392157  50.9204197
  40.0567389  29.7675323  50.9131384  41.1583185  29.3159771  51.8478060
  85.7246399  68.2489443  16.6482282  85.2311420  67.5111055  17.0064008
  85.0609684  68.8062811  16.2418449   6.5539312  14.9273539  65.7695341
   6.3179755  14.8703039  66.6954422   5.7630706  14.6558225  65.3036547
   8.9898658  17.9323804  70.2669525   8.9432466  17.2141433  69.6359301
   8.1085503  18.3058822  70.2702570  57.7327776  67.0197010   0.9978280
  56.7866230  67.0889902   0.8704434  58.1058645  67.2332001   0.1425768
  41.9470263  49.6222925   7.8796619  42.5798750  50.3399563   7.8533661
  41.2808037  49.8667908   7.2373205  76.7499399  20.7380271  36.9396567
  77.1350288  20.1642990  37.6020598  77.3086548  21.5152431  36.9419146
  50.9458685  63.0533218  62.8541946  50.3650665  63.3703995  62.1625566
  51.5882015  62.5102711  62.3973179  78.3171511  61.4069843  13.6958671
  77.6364136  61.0652494  14.2755616  77.8484774  61.6650820  12.9021668
  23.5190749  10.8991456  15.3224516  24.1502786  10.2368808  15.6039071
  22.8193069  10.8553135  15.9740925   8.4250915  25.6852484  22.1385169
   7.6123703  25.3952694  21.7242360   9.1154397  25.3872728  21.5461802
  83.5785484  46.7327690   3.6251870  84.4903088  46.5836668   3.8755667
  83.5407066  47.6625872   3.4010506  58.4709692  26.9680214  67.8961849
  59.1640949  27.5731301  68.1601000  57.6889324  27.5155020  67.8260994
   3.9586395  40.1626587  23.8183284   3.0235073  39.9730825  23.7420368
   4.3745330  39.5739675  23.1884837  39.2670941  25.8443570  41.4273262
  39.4723392  26.4851189  40.7464933  38.5519862  25.3250194  41.0597086
  10.2929425   3.4020266  40.8440304  11.1990571   3.6487952  40.6588411
  10.3105319   3.0864203  41.7475319  17.5765932  20.5160284   2.8391951
  17.0171988  21.0969710   2.3236229  18.1891835  21.1037302   3.2814285
  21.6065621  59.5467043  32.0250297  21.8746161  59.5579052  31.1061978
  21.1985159  60.4010344  32.1659160  76.8629742   1.9789660  10.4528975
  77.8198576   1.9771187  10.4774356  76.6100645   2.7021989  11.0266602
  30.9600878   2.5760567  41.1480856  30.2873039   3.0311978  41.6544867
  31.6135216   2.3158553  41.7973566  46.8500376  80.9796047  10.6543326
  46.7401886  81.0766029  11.6002488  47.1864891  81.8274212  10.3640974
  67.0825529  23.4499240  35.0742936  67.8874063  23.9680099  35.0689340
  67.3541546  22.5887561  35.3918719   1.5611832  77.6719379  56.0495615
   0.8297688  77.4929380  55.4586124   1.7316255  78.6078072  55.9430790
  33.0783248  21.0017538  69.7435474  33.0468869  20.8934951  70.6940842
  32.4310613  21.6822100  69.5584488  22.6381755  68.7658310  40.0607967
  22.5414562  69.6977806  39.8649788  22.2977471  68.6714220  40.9504175
  15.7102847  56.6089964  61.5338516  15.2532244  56.3132000  62.3211479
  15.0654364  57.1417141  61.0684347  71.2622595  59.4829750  24.4261694
  71.7340708  58.7441874  24.0416956  70.3408241  59.2274284  24.3827677
   6.0773760  69.5302057  14.3635893   6.2981546  70.0997210  15.1005697
   6.9121283  69.1406250  14.1034973  43.9189863  73.2152796  29.4484448
  44.4939804  72.7992916  30.0907636  43.0348587  73.0497456  29.7757745
  24.1803741  25.7468820  31.4497805  23.2334161  25.8541703  31.3603687
  24.5484757  26.2588239  30.7296109  11.4199507   3.6566186  29.3911958
  11.5935552   3.4965777  28.4635735  10.8902955   4.4538558  29.4016743
  20.1143503  28.2796311  10.7453656  19.6883559  28.6424685   9.9687642
  19.6130240  28.6325407  11.4804554  81.6438961  25.5300307  42.6174164
  82.5935650  25.6018257  42.5215340  81.5216637  24.8900843  43.3186722
  18.2063210   9.4361860  60.5485964  17.8330934   9.8359364  61.3341713
  19.0161586   9.0249789  60.8507586   7.9707652   5.4602212  10.9298813
   8.3781725   4.7721758  11.4560425   8.3663052   6.2714642  11.2487304
  47.7615213  39.0732527  64.6053028  48.5753059  39.5715189  64.5297289
  47.1827793  39.4585681  63.9474106   2.3925009  15.2075422  16.5201092
   1.8208951  14.6437097  17.0412529   3.2303077  15.1924574  16.9828010
  77.6876640  57.7165699  18.3463740  77.6312399  57.2106791  17.5357449
  78.5411406  58.1475496  18.3008230  36.7491126   7.4576998   5.2613729
  36.9364762   8.3865440   5.1258177  35.8064365   7.3796302   5.1147509
  27.6083040  47.2323465  21.2677908  28.2482767  47.5247192  21.9167757
  28.1016493  46.6495085  20.6906056  38.7170982  16.1144602  32.9072309
  39.0056658  16.9793975  32.6159477  39.1328835  15.9983921  33.7615609
  84.9393654   1.4332080  16.2314630  85.7117653   1.9972646  16.1932337
  85.2855110   0.5674207  16.4478612  81.6788197  14.6254444  17.9845011
  80.9517479  15.2273309  18.1436574  81.3618374  14.0444922  17.2929478
  20.4349971  42.6054049  70.0881386  21.0807991  42.4704695  69.3946266
  20.6579161  41.9539261  70.7530546  37.8344107  32.9074073  49.6300364
  37.8299665  33.6240792  48.9955378  37.7294350  33.3379960  50.4784536
  76.2198877  36.6108513   7.4570394  75.2778435  36.4557815   7.5258207
  76.5662909  35.8101845   7.0631206  25.1521707  74.9463320   4.8383570
  25.1004696  74.8514795   3.8872722  25.2826142  75.8841467   4.9787909
  45.5879068  29.6388435  56.4535284  46.2332106  30.1208162  56.9707537
  46.1092186  29.1412258  55.8235741   1.7076726  16.3661063  13.3822465
   1.0107166  16.9345629  13.7098753   1.6542009  15.5821788  13.9289010
  56.8720818  71.5222120  15.4272878  57.5072765  70.9520817  14.9940348
  57.1213245  71.4999199  16.3512003   3.4127027  39.3092847  28.6677885
   3.4465811  39.8852015  29.4315982   3.2379299  38.4407759  29.0302444
  57.6141644  16.3976061  53.7918091  58.0345154  15.5467749  53.6668205
  57.8323507  16.8910074  53.0011225  29.0319300   8.9111614  14.9724972
  29.3988490   8.1370169  14.5455289  29.7960687   9.4179845  15.2471852
  26.5138030  72.7198172  24.4073462  26.0640788  72.3330307  23.6560965
  25.9433556  72.5294065  25.1520395  53.2229948   8.2763243  31.3644123
  53.9880943   7.7269983  31.1938238  53.2188892   8.3929187  32.3144770
  17.7654827  15.8432007  59.6003437  16.9655621  16.0626233  60.0780630
  17.8235781  16.5067637  58.9129305  71.1182261  38.0039907  38.6087418
  71.4906549  37.9561806  37.7282643  71.2461185  37.1271968  38.9708304
  51.7239332  43.7122440  66.4861584  51.7165947  44.6168756  66.7989254
  52.4850988  43.3177900  66.9119120  60.6551838  57.1687555  68.9997911
  60.4547930  57.6457119  69.8051405  60.4707003  56.2536001  69.2112064
  32.8729653  15.1046193  17.9077303  32.6561999  15.3929663  18.7943542
  32.3728943  14.2970347  17.7895367  27.4229956  26.9606352  66.8346643
  26.5225482  26.6369796  66.8606186  27.8780532  26.4570904  67.5096416
  59.6211819  61.0704901  70.1733125  60.5389647  61.2709929  70.3569025
  59.2327122  61.9148399  69.9444109  57.1965837  42.1901941  63.6769533
  57.3239231  42.3879433  64.6048069  56.7247915  42.9486847  63.3329630
  20.6906080   1.2645698   1.6570139  21.2384558   1.8296808   2.2017573
  19.8182750   1.6552773   1.7081410  85.4107857  15.2986884  20.1920128
  84.9364948  14.7425449  19.5739615  84.7741795  15.4876935  20.8814001
  23.5354257  20.5224085  20.6632352  23.1237483  20.3321147  19.8202991
  22.8334594  20.9008956  21.1925983  44.2688656  69.7611618  32.1265554
  43.7002039  69.0063763  31.9743896  43.9427900  70.1466227  32.9397774
  43.6703587  74.9995852  23.0242610  43.3721352  74.1985989  23.4552050
  42.9898119  75.1921797  22.3792839  32.9837155  20.3908658   8.1110018
  32.3019528  20.5596638   8.7613398  32.5039816  20.2043986   7.3039597
  37.5084019  14.0264738  69.9267054  38.2807779  13.4764636  70.0576830
  37.2687602  14.3163848  70.8069038  30.1024270   9.9472237  70.2620506
  29.7510552   9.8137182  69.3817425  30.4529786  10.8378041  70.2475023
  68.5861158  47.8134012   6.5603012  69.3697405  47.3768139   6.2263006
  67.9652977  47.1024370   6.7195010  53.9567089   8.1252724  15.9132469
  53.0587721   8.4367585  16.0269248  53.8916397   7.4470329  15.2409446
  54.8611355  70.8445263  31.7702127  54.5871162  70.0034475  32.1359062
  54.8761177  71.4385128  32.5206685  79.4472742  42.3232460  11.1853004
  79.5938778  42.7237701  10.3283763  79.1210699  43.0385399  11.7313588
  60.9375572  28.6407948  68.6839724  60.3308630  29.3508554  68.4742689
  61.2563133  28.3390546  67.8333378  14.0062749  67.7827215  48.7640285
  14.5054424  66.9972801  48.5400963  14.6707964  68.4579945  48.9005899
  11.5196216  66.5680313  38.6164427  11.5989208  66.4082241  37.6760149
  12.4150896  66.4988899  38.9474821  19.7340250   8.6393338  67.8581190
  18.7916791   8.5869312  67.6985216  19.8158729   9.2057765  68.6253691
  36.1149502  40.2622795  62.5180721  35.4758358  40.2782202  63.2304716
  35.5865192  40.3067112  61.7211914  28.6066937  28.9455509  60.4243231
  27.9917884  28.6473441  61.0945415  28.1980562  28.6948967  59.5958138
  11.8286741   9.1323161  19.3696082  11.8997467   8.3576947  19.9274099
  10.8917463   9.3271363  19.3485272  73.8659716  74.8417377   6.8711579
  74.6209621  74.2677450   6.7417377  73.1080246  74.2828655   6.6996640
  50.4921722   5.3611201  47.1297741  50.2904558   5.4287082  46.1965132
  50.7922316   4.4595346  47.2452784  64.1482639  72.6238394  68.4166670
  63.7095308  73.3780098  68.8103390  63.8675928  72.6342249  67.5016022
  58.8458300  19.7070873   8.4001654  58.3946657  20.0452471   9.1736865
  59.3532562  18.9632583   8.7249202  20.0476122  70.9602213   9.6904838
  19.3459964  70.4317331   9.3101370  20.2324462  70.5430651  10.5319381
  43.1098127  57.3008633  22.4686122  43.2673693  56.3595247  22.5413656
  43.3837461  57.6556253  23.3143902  22.5952125  17.8244233   5.7450259
  22.5022078  17.6156139   4.8155203  23.4454298  17.4584568   5.9888154
  26.5220571  13.1828308  53.2531548  26.1214852  12.3723543  53.5676384
  27.1338487  12.8996539  52.5736284  20.6916952  56.2018538  56.3479757
  21.6027522  56.0152340  56.5746450  20.1832080  55.8111191  57.0586061
  73.6132002  77.4439859   1.3106233  73.3043528  77.8896475   2.0994413
  74.4141436  76.9977999   1.5856598  66.9017220  72.7491426  10.3333378
  66.7439127  72.2832584  11.1544847  67.7248621  73.2160187  10.4772186
   9.8558640  17.9070807  38.0859923   9.4712448  18.3977020  38.8123465
   9.2350197  18.0189073  37.3660755  20.1778984  54.5676756  16.3455379
  20.3587198  53.8645697  15.7216978  21.0411811  54.8386383  16.6578710
  49.7553110  75.3382254   9.3452734  49.5655107  76.1380386   9.8356819
  49.2121983  75.4042864   8.5598469  35.7675385  16.5557945  42.7386904
  34.9738216  16.8931198  43.1539726  36.4294195  17.2265124  42.9068565
  85.0370598  36.4342022  31.2768149  84.7066593  35.8967996  30.5569124
  85.3948975  35.8036256  31.9017649  81.1565971  59.0828037  63.4718513
  81.7580700  59.4876385  64.0968037  80.3275299  59.5422268  63.6053228
  14.6444130  60.7394934  22.6353621  14.6030724  61.6121483  23.0265093
  15.2804482  60.8252239  21.9251919  56.0498714   4.7526404  33.3435416
  56.7873859   4.9929935  32.7827072  55.5882740   5.5767441  33.4984875
  28.8305068  10.3075409  67.8091860  29.0645790  10.7411849  66.9885826
  28.0303288  10.7491410  68.0936813  41.2644958  73.2715225  33.5200810
  40.5515003  72.9734278  32.9552674  41.7374849  72.4719954  33.7508750
  83.0948639  28.2616329  47.6910877  82.5647545  29.0586329  47.6900625
  83.9983368  28.5749650  47.7334499  18.7645650  43.4744310  41.0361195
  18.1901217  42.7194643  41.1636686  19.2878580  43.2499456  40.2666998
  42.3509359  75.6276464  14.7262180  41.4100599  75.7903099  14.7934639
  42.7504444  76.3018703  15.2758002  56.9072342  69.1522884  12.8324068
  57.1988678  68.7373209  13.6441839  57.7150393  69.3300581  12.3506570
  64.8027420  74.8484755   0.5185823  64.2971230  74.4513273  -0.1905427
  64.6075392  75.7835579   0.4573694  16.2796724   6.0227627  37.7401924
  16.0183883   5.9298909  38.6563444  15.9392774   6.8786067  37.4796271
  71.4815474   3.6960983   4.2986137  70.8096695   4.3660235   4.4251460
  71.2008476   3.2199687   3.5171145  85.2730370  44.4214725   0.3118135
  85.6899166  44.0588808  -0.4698350  84.5976448  43.7830925   0.5410436
  17.9400170  69.6717262  30.4062057  18.1737030  70.1979160  29.6415162
  17.4856150  70.2819490  30.9870481  78.6002636   4.9480411  17.0313919
  79.2353916   4.2894173  17.3125696  77.8061485   4.7406122  17.5239170
  73.7857580  27.1774626  49.9094772  74.7387695  27.1189451  49.8418808
  73.4753370  27.0795894  49.0093136  28.8994980  72.9093599  53.1475639
  29.0097332  73.6036491  53.7972116  29.7849870  72.7390575  52.8264141
  28.7415457  36.2709975  57.2657681  29.6476150  36.3291478  56.9626379
  28.6873651  35.4178953  57.6964808  44.1039705  38.8494182  59.5247221
  43.2416344  39.0437365  59.8919392  43.9428473  38.1487298  58.8928127
  29.9059319  11.4986753  58.1371355  29.5848346  11.9527328  57.3580599
  29.2853045  10.7820725  58.2695532  31.6351175  11.7076182  25.3896284
  32.3880982  12.2985125  25.3798747  31.9596910  10.9130192  25.8133030
   0.6453844   8.3999091  44.1022444   1.1755361   9.1914129  44.1954803
   1.0574418   7.7652115  44.6884155  55.8420420  60.0399017  55.2781010
  56.7923403  59.9279737  55.2528048  55.5925417  60.1764011  54.3641281
   0.9256622  30.2397752  36.5412140   1.1134386  31.1759782  36.6082644
   0.6623967  29.9843740  37.4253464  65.2900314  52.3296928  31.2725019
  65.9929609  51.8374109  31.6965079  65.0611401  51.8067694  30.5041337
  55.6369114  51.7995882  12.9806685  56.1248493  52.5448942  13.3309042
  54.7681522  51.8752766  13.3753395  79.2428493  10.0893235  33.3660364
  79.3411207   9.3163168  33.9219451  78.3075857  10.1224351  33.1650019
  66.4693022  69.0850925  34.0253329  65.5673313  68.8256168  33.8373160
  66.9917631  68.3150673  33.8009930  83.9930534  64.4226694   1.5797409
  83.8882923  64.7032166   2.4888906  83.0980778  64.3233061   1.2551089
  27.0231175  53.4308004  15.1023638  26.4570141  52.8711796  15.6339455
  26.4282155  54.0703487  14.7108293  50.2576494  73.3858728  62.3493433
  50.7385159  74.0762901  62.8057623  50.0054646  72.7729130  63.0399370
  70.9638596  57.1530104  29.7910762  70.9185743  58.0333710  29.4180512
  70.2833366  56.6623306  29.3302536  61.6205215  72.1952581  26.0690570
  60.8850193  72.0457554  25.4749942  61.9735003  71.3216686  26.2378073
  37.8372049  24.0054703  27.6351237  38.6643958  24.4789815  27.5469470
  37.9085588  23.2809234  27.0136952   2.0753297   4.7439420   1.8683000
   2.3383775   4.5042825   2.7568951   1.1185460   4.7513700   1.8955331
  38.2060933  31.8049526  33.1359673  38.8913274  31.7634273  33.8030219
  38.2826138  32.6854825  32.7684832   3.2645831  69.7670221  19.4016886
   2.4322781  69.3107796  19.5255542   3.1832865  70.1850986  18.5444617
  12.1801794   3.2212830  17.8820109  11.6824174   3.8944072  17.4179327
  11.9550955   3.3495474  18.8034868  18.9649308  57.1323204  17.1094429
  19.1173291  56.8113947  17.9982698  19.2644548  56.4209795  16.5433073
  34.7775722   4.9696457  10.7625616  34.5544624   5.7289284  11.3010263
  34.5045328   4.2162263  11.2860501  58.4906340  58.8888502  51.9730091
  59.3193865  58.8434315  51.4962149  58.5023308  58.1230259  52.5471306
  10.5046833  58.2010746  40.5136395  10.5823517  59.1384411  40.6912613
  10.1599407  58.1540298  39.6219182  64.6241999  12.1075451  28.0036068
  65.3131247  12.7314210  27.7747011  63.8330507  12.6411390  28.0783916
  39.1415644   7.3726034   2.9252771  39.7540808   7.6207560   3.6177188
  39.6951556   7.0056003   2.2360182  74.9774694  18.2888651  15.1348305
  74.6608973  17.5350904  14.6369970  74.4551611  19.0241373  14.8141980
  57.7640676  60.3661871  59.2207861  57.1974707  60.5303621  59.9746084
  57.1866035  59.9683475  58.5692596  86.1725044  33.3599305  18.2825840
  86.0609913  33.7422371  17.4121583  87.1197128  33.2655525  18.3831739
  24.7516561  30.8245540  11.6149783  25.6276870  30.4983139  11.4091408
  24.1635656  30.2749515  11.0969853  76.8883514  21.1072421  25.0053859
  76.9691277  20.8355141  25.9196448  76.2758160  21.8424654  25.0272560
  13.6741698   2.5172400   8.7538975  13.6093557   2.4621338   7.8004861
  13.1225419   1.8030807   9.0731388  10.8719075   8.4864444  27.5469589
  10.9042668   9.2734122  28.0908966  10.0164545   8.1003380  27.7349877
  76.7301798  24.7038078  32.6933002  77.2547293  25.2928829  32.1510220
  76.1970711  24.2133522  32.0676160   4.8957574  37.6784992  18.5991311
   4.4976538  36.9122863  18.1860149   4.4716358  37.7364659  19.4552803
  29.3140173   4.6153092  42.5009918  30.0879264   5.1589590  42.3535395
  28.6462212   4.9881303  41.9254160  67.4300671  78.4182215   0.7450804
  67.7146673  78.0515623  -0.0920548  67.7460861  77.7950573   1.3993216
  75.8328915   8.9330298   6.5978312  75.6344604   8.0710536   6.9636929
  74.9906063   9.3875951   6.5853387  10.8633626  12.4676156   6.8463314
  11.1086142  13.3872151   6.7442501   9.9065834  12.4764693   6.8732846
  59.1208410  47.6404333   5.9261966  59.5254898  47.0429993   5.2972591
  59.8388290  48.2011223   6.2200612  86.3237095   9.9496925   9.9290866
  86.0086250  10.7247841  10.3940427  85.7379627   9.2469233  10.2105939
  17.7951300  19.3170631  36.1362028  17.9289091  19.1260386  37.0645571
  18.6415303  19.1321170  35.7292223  35.2428055  31.1469030  68.0833483
  35.0509787  31.2050176  69.0193272  35.7142806  31.9559312  67.8848028
  54.8292017   0.1248121  64.9522543  54.8196459   0.5819802  65.7931662
  53.9398956   0.2278424  64.6134996  18.8783705  46.2925005  14.5164812
  18.2299137  45.6091118  14.3470347  19.3878853  45.9611559  15.2559638
  58.6795235  62.7354765  61.8029547  59.2061567  63.4812212  62.0906210
  59.3009853  62.1623564  61.3540173  74.0739250  37.4645066  45.1501131
  73.1657505  37.4847126  44.8483801  74.0592337  36.8901038  45.9156704
  74.1766930   3.6902729   0.6343625  73.9946032   3.9211902   1.5452701
  73.9089680   2.7741769   0.5613939  59.5128632  79.8001814   5.5894274
  59.9883032  80.5798340   5.8763516  60.1404762  79.0850210   5.6937218
  42.6886320  40.6650305   0.6839900  43.2112646  40.0359917   0.1865939
  42.5921869  40.2657223   1.5485610  30.0858230  81.3458350  32.3299289
  29.4350261  80.8401418  31.8431330  30.6456059  81.7289184  31.6545582
  83.0081749  81.2423325   5.3256172  82.9657745  80.2884769   5.2578312
  82.3137951  81.4696026   5.9440130  10.4095900  12.8490019  10.2677917
  11.2968707  12.5996292  10.5262077  10.3761029  12.6745248   9.3272233
  81.9124585   0.2020740  13.3956540  81.9888478   1.0010528  12.8740907
  82.7466708  -0.2491188  13.2662225   4.6362886  18.3031750   7.0484757
   4.6900624  18.9445662   7.7569652   5.2718043  17.6284623   7.2874629
  41.0289431  65.7238007  24.2384315  41.6724825  66.4285374  24.1647387
  41.4145231  65.1119614  24.8654985  12.1779311  14.0410054   1.1950747
  12.0260692  14.9835086   1.1253846  11.3487828  13.6443973   0.9277797
  21.9567227  43.2606268  39.1747570  21.0898161  43.6614561  39.2383194
  22.0567060  43.0522013  38.2458878  31.0411739  42.3678064  37.2815847
  31.8492508  42.6187134  36.8340445  30.3599763  42.4597883  36.6154456
  66.3425064  81.0532665   6.6498041  65.9710836  81.0402489   7.5319088
  67.1768188  80.5917454   6.7343867  70.6827641  80.1547146  27.1607256
  70.7133484  79.2232275  26.9424844  70.1370430  80.5431271  26.4769411
  84.0687180   1.2619871   7.9092616  84.7011375   1.9180606   8.2022548
  83.3701611   1.7700909   7.4968588   8.5963267  32.1007228  25.0568104
   8.8497359  31.3137078  25.5391240   7.9784709  32.5476527  25.6353784
  76.7344856   0.4410206  19.5456874  75.9064817   0.8332769  19.2686093
  77.3956633   1.0977008  19.3269408  32.6274753  80.9378815  60.3974438
  32.5618315  80.0173855  60.1432514  31.9784927  81.3835716  59.8530054
  76.7751455  73.0450487  59.9027920  77.3668003  73.1704998  60.6447077
  76.7779875  72.0999146  59.7513294  50.9346008  79.8026419   4.0540984
  50.9011555  80.7547665   4.1467097  50.0258923  79.5199394   4.1568485
  62.9296064  44.4179201  45.0307798  62.2331524  44.9795580  45.3710032
  62.4933147  43.5896635  44.8311043  58.2807159  28.5626364  58.9152908
  59.2189884  28.7472558  58.8728809  58.1025982  28.4402823  59.8477793
  75.7793856  80.7904625   8.2943982  76.2572718  81.2089729   7.5783622
  75.9855556  81.3223457   9.0630519  81.0705566  70.4806519   4.6232891
  80.5320358  69.7330570   4.8827744  81.6641617  70.1293612   3.9596227
  32.9592586   8.3664519  31.2067389  33.6395621   9.0351784  31.2856317
  32.9228044   8.1711763  30.2703786  49.3594456  54.5878649  52.2467566
  48.7011337  54.7423220  51.5692616  49.9558735  53.9471149  51.8595266
  65.5215693   4.1290227  63.2537651  66.2296915   3.6338067  63.6655331
  65.1553726   4.6577823  63.9626694  29.3893814  10.4535389   9.2428166
  30.2200055   9.9805570   9.1919887  28.8048983   9.9749941   8.6549330
  64.0265608  72.9462242   2.7456045  64.8164034  72.5433683   3.1062767
  64.3501472  73.6721039   2.2121032   1.9605012  11.0964322   4.8947307
   1.2394520  11.1759901   5.5192226   1.5325342  10.9326613   4.0543407
  43.1281805  50.3793907  28.8056612  42.4090052  51.0095453  28.7617278
  42.7791071  49.5885324  28.3946657  79.7398567   5.0009048  11.0113919
  78.8840675   4.9393383  11.4357328  79.7106838   5.8291548  10.5324531
  56.9337130  61.8845463  68.3345604  56.5807724  61.1751747  67.7974844
  57.6561117  62.2401857  67.8169823  70.6734896  77.8118658  41.4150381
  70.7483101  78.7105942  41.7358494  70.1331568  77.3683453  42.0689201
  16.7807841  80.9389782  63.6612749  17.3463428  80.7239532  62.9195595
  17.1332490  81.7616749  64.0006304  28.8149548  35.2879786  50.5093098
  29.6949315  35.6638217  50.5340958  28.9084435  34.4315815  50.9265375
  10.4051006  28.4147620  15.2250087  10.5384719  28.7900591  16.0954082
  10.1662493  27.5028944  15.3913867   6.6757715  29.1248250  21.2360287
   7.6288992  29.1863799  21.1728668   6.5101767  28.2139564  21.4791965
  76.4484549  26.5538025  19.8939562  76.2715912  26.5324259  18.9534807
  77.3952532  26.4308739  19.9624693  31.0140491   5.8066076   7.4093628
  31.9441938   6.0231221   7.4740225  30.9430671   5.2929544   6.6047800
  10.4308856  30.0576615  17.3291838   9.7529775  30.7237792  17.4430168
  11.1201513  30.4996729  16.8334305  28.7419462  52.4701357  31.0707426
  28.3368683  53.0856705  31.6816926  28.0369306  51.8667698  30.8359337
  43.1827974  78.4496498  65.3922367  42.2579670  78.3048868  65.1923227
  43.3605480  79.3352461  65.0754595  26.9887757  10.1022696  20.0901771
  27.3738837   9.3712401  19.6069384  26.9424105  10.8136821  19.4514477
  60.1798248  58.0129957  54.3011856  59.6112347  57.2429705  54.3003035
  60.8964825  57.7822256  53.7101030  82.9412651  26.7605686  14.2875147
  83.8660336  27.0023179  14.2366302  82.7501011  26.3645387  13.4373093
  25.8384895  37.0106316  68.8085794  25.1717401  36.5966654  69.3565845
  25.8651853  36.4733529  68.0168390  37.7646136  80.8333397   6.8656772
  38.1079292  81.6548157   7.2171682  37.7150464  80.2507019   7.6235139
  52.9195499  78.3940506  63.1921482  53.2106352  78.2291937  64.0889883
  53.6994839  78.7204599  62.7433777  79.3301630  21.9073033  28.3996820
  80.1735497  21.4897084  28.2248974  78.7354946  21.1794543  28.5809064
  47.8786820  26.0377647  70.5510756  47.3477239  25.7735254  69.7997459
  47.4646634  26.8411924  70.8662359  82.2700500  15.9393013   4.7996092
  81.9209290  16.1390400   5.6681985  83.0935097  16.4252532   4.7548988
  36.5053916  53.7853003  44.9138451  35.6706452  54.0707827  44.5424557
  36.7434072  53.0122805  44.4019699   2.3595920  77.8378630  10.1022351
   1.5801671  78.3925867  10.0704193   2.0869644  77.0703506  10.6050587
  46.3855457  22.4204969   6.5373129  45.6135845  22.9793119   6.6269368
  46.7396164  22.3570919   7.4243563  82.5402355   6.3473457  35.3486991
  83.1415272   6.1845410  36.0754538  82.2154617   5.4798049  35.1076031
  70.8279514  26.7945981   7.6104450  71.0500574  27.5356984   8.1740671
  69.9186516  26.9513965   7.3558342  59.4767237  75.7772541   1.3041188
  59.8055649  76.6036892   1.6578212  58.8854694  76.0374260   0.5977489
  10.1105702  20.1127243   9.5544577   9.2025918  19.8968029   9.7670287
  10.3251791  20.8431983  10.1346135  68.4969139  51.9714737  17.7715313
  68.4448576  51.9967604  16.8160820  68.7398863  51.0681105  17.9743373
  69.6666813  72.0525646   8.6803645  69.0792894  72.3918676   8.0050308
  69.8214102  72.7984238   9.2600048  26.1713910   1.0506534   2.9889244
  26.2102795   0.5668483   3.8139409  25.2574658   0.9807057   2.7130982
  25.5516720  43.6732244   8.8556165  25.7946491  43.6265278   7.9309475
  24.9341393  42.9521275   8.9776993   5.2224416  37.6808786  44.5179176
   5.1035953  37.8212047  43.5785484   4.7945514  36.8422842  44.6908379
  47.8822565  70.0980520   9.0306211  48.7223387  70.3758144   9.3957788
  47.4027157  70.9136772   8.8855976  38.7753844  11.3971210  -0.3363938
  38.0352283  11.9408464  -0.0666518  38.9896679  10.8814788   0.4410554
  26.6134548  54.6766663  69.9148941  26.0414505  53.9385843  70.1253319
  27.4301505  54.4858885  70.3762436  84.2236042  64.6277285  12.5899398
  83.3633041  64.4741964  12.9805148  84.8447037  64.3198109  13.2499814
  56.2595797  76.4600134  11.8864369  56.4714384  76.5838861  12.8116405
  57.1044683  76.5064335  11.4389563  52.1832943  28.4222341  28.0901217
  52.3062944  28.6231589  27.1623659  51.3356352  28.8094282  28.3087087
  47.4564409  59.5602036  48.4366608  47.8924608  60.4029942  48.5624456
  47.4015331  59.4583941  47.4864769  71.2226439  13.4889925  46.7220163
  70.5014038  13.2797503  46.1285019  71.3640118  12.6840258  47.2202921
  21.7685485  19.9343383   2.6872128  21.0424232  19.7121525   2.1044527
  22.4054599  19.2321837   2.5547245  86.5955639  24.4827890  46.4945126
  85.8281136  24.4423962  47.0651436  86.8325901  23.5672522  46.3467121
  10.6957901  33.5250211  33.8544774  10.8290350  32.6291990  33.5446644
  10.3253388  33.9861178  33.1018877   7.0560610  31.5500212  40.9808683
   7.2455949  30.7633662  41.4922237   7.9099172  31.9626188  40.8507776
  16.0511708  79.9657106  18.9509559  16.9378674  80.1455975  19.2634320
  15.9961379  79.0104914  18.9233327   3.8650739  30.6076145  11.2084544
   3.8041779  31.2817478  10.5316472   3.3142287  29.8942161  10.8861744
   8.4859455   1.6236286  35.3767419   8.0994010   0.9993534  35.9908223
   9.3968421   1.3423491  35.2908325  23.1569481  43.0097866  66.2075281
  23.4489417  42.2855854  65.6539011  22.2023296  42.9395771  66.2099934
   7.3975998  64.0168047  39.3928313   7.0429444  64.9057055  39.4103479
   7.0246100  63.6256409  38.6028290  34.8414230  32.8662348  64.6537924
  34.3949437  33.7096763  64.5796633  35.1156497  32.6610208  63.7599707
  18.3019102  26.5327311   0.4939303  17.8759181  26.3801908  -0.3495707
  18.3797097  25.6620359   0.8838938  38.9855933  10.3854954  11.1191726
  38.2807517  11.0326385  11.0940289  38.8697863   9.8739845  10.3184366
   4.5849898  10.3350008   2.8268009   5.2500981  11.0156858   2.9294199
   5.0124347   9.5345879   3.1315321  72.7186684  62.3473431  70.2275396
  73.6619953  62.3666193  70.3887820  72.3267893  62.3282768  71.1006350
  34.6572161   7.0800543  12.2856832  34.3265963   7.9742175  12.3716748
  35.3633952   7.0228708  12.9293227  70.8705330  76.0767126   5.2303314
  70.5874920  75.1653576   5.1558566  70.2702379  76.4625788   5.8682811
  16.4899373  73.9297056   5.8325487  16.9617844  73.8702202   5.0018543
  15.6710112  73.4591579   5.6770700  79.8217344  71.0805416  38.5375929
  79.8057890  71.3180971  39.4647098  80.2813053  70.2412367  38.5132694
  83.3088207  58.0065250  11.0541189  83.1712532  57.2235775  11.5873182
  84.2433739  57.9944468  10.8475208  76.3551903  48.2606316  37.3068786
  75.8199310  48.8623619  37.8242278  77.0101213  48.8205910  36.8900490
  67.6815939  27.1709728  12.9476297  68.3150434  26.7526484  12.3645568
  68.1658506  27.8922868  13.3494174  85.1060295   3.5838163   9.0632778
  85.3831959   3.5319191   9.9779993  84.6069336   4.3988705   9.0101141
  11.4245927  52.0349360  56.5132904  11.4863741  51.5307045  55.7020140
  10.6319058  52.5611401  56.4084673  76.1145592  39.4426799  65.1147223
  76.4708853  39.5467186  64.2324305  76.6886425  38.7994576  65.5305719
  54.3646002  68.9698935  67.4981546  55.2133131  69.3007278  67.2041035
  53.9254475  68.6897278  66.6951084  73.7124538  31.9459343  15.9928286
  73.9639187  31.6688418  16.8738592  74.4285870  31.6449451  15.4335463
  18.5921133   0.4862117  35.7632780  18.2676923   0.3486160  34.8733068
  17.9952753   1.1337864  36.1383295   3.9234293  24.9487758  26.5294790
   3.5565931  24.1670275  26.1165214   4.8038563  24.6867442  26.7985892
  27.1440148  63.0410385  60.4222012  26.9664717  63.9684725  60.2654314
  27.7756381  62.8001928  59.7445011   6.3084072  26.6274476   4.2530090
   6.2685299  26.1442947   5.0783610   6.6043288  27.5030184   4.5020831
  21.1992359  20.8774877  28.2760715  20.9293222  20.3016472  28.9914632
  21.6842914  20.3072453  27.6796031  27.4504852  32.8626418  63.6879110
  26.7706251  32.5678587  64.2938185  26.9725776  33.3185506  62.9951048
  66.8640089  14.7861958  52.9417467  67.4898005  14.9093044  53.6555147
  67.3978424  14.8139989  52.1477175  66.9742680  10.2494895  33.7788367
  67.5511694   9.5373851  34.0551019  67.5383663  10.8304048  33.2683873
  27.9689622  74.4631433  26.0440350  28.8504672  74.4135666  25.6742740
  27.4841213  73.7664175  25.6016159  13.8132358  77.5024176  26.9842243
  13.2769740  77.9278374  26.3151431  13.9958155  78.1940269  27.6202846
  16.9640791  29.1771054  16.8065155  16.1391830  28.7834692  17.0908177
  17.1348703  29.8657060  17.4490809  52.5060558  20.6161046  15.0508761
  52.8385448  21.3260603  15.6000996  51.7246866  20.3053498  15.5081761
  65.2944994   6.8088490  61.6706133  65.1415062   5.9852958  62.1338463
  64.5679903   6.8735349  61.0507536   3.9852783  28.1891942  27.3144054
   3.4657151  27.5209308  26.8675184   4.4580886  27.7097321  27.9946995
   9.3129665  32.5911832  39.8655176   9.7974354  31.9088721  39.4007897
   9.9865574  33.2024980  40.1635170  66.4690399  64.0943050  13.2898784
  65.7673788  63.8049173  13.8731050  66.9218159  63.2883406  13.0416000
  82.7324009  67.0300150  14.7653413  82.8471661  66.4842081  15.5432558
  83.3354568  67.7619219  14.8951900  78.3700562  54.9422789  49.0815926
  78.6518955  55.6089592  48.4552288  79.1839647  54.6104193  49.4606161
  42.9274940  25.5344844  23.5947084  41.9846249  25.4286909  23.4680438
  43.2788086  24.6463418  23.5313773   2.5891191  17.8247786   9.3741208
   2.1130891  18.5275853   9.8164886   2.3081328  17.8830302   8.4609479
  36.7517972   2.5268483  13.1657791  37.1151900   2.4365474  12.2848570
  37.3847771   2.0857590  13.7323570  22.7252531   4.7884622  24.3242049
  22.3782229   5.3150088  25.0443077  21.9515872   4.3947977  23.9208412
   7.3307538  11.8348384  33.8113451   6.8571270  11.0686862  33.4874296
   7.3533499  12.4351656  33.0661416  70.3906012  37.5661802  66.9984627
  70.0768757  36.8685818  66.4229965  71.2657452  37.2828603  67.2632027
  40.5584383  78.8777447  70.0116825  40.4889441  79.0780067  69.0782452
  41.4938545  78.7362051  70.1572847  16.4347291  51.2009144  65.7148886
  15.6832612  51.3890600  66.2771416  16.0687113  50.7011127  64.9851894
   3.4403229  79.0237188  31.3435769   4.0284431  79.4500065  31.9669771
   2.7321795  78.6729908  31.8837166  40.9274769  52.4693012  67.6292896
  40.2581644  52.0683336  67.0747805  40.4339075  52.8983927  68.3282185
  23.6135817  16.9501054   3.2798964  23.3687830  16.2142527   3.8409913
  23.6792088  16.5713835   2.4032578  17.4503565   3.2446289  52.2850704
  16.6329622   3.6119503  51.9486570  17.1780312   2.4822637  52.7958250
  76.6810417  68.5676575  13.2670152  76.3332033  69.0091610  12.4922168
  76.4651680  67.6446724  13.1338811  60.2308083   4.1944763  37.3086858
  60.0142670   4.6510667  38.1216216  59.5883226   4.5148444  36.6755915
  40.0135231  52.0625019  15.5244112  40.5389595  51.5005398  16.0939264
  39.6060276  52.6921749  16.1191320  77.8204298  73.1434822   2.7985114
  78.0754566  72.8206348   3.6627817  76.9578838  72.7583313   2.6438943
  54.1418076  31.9292998   7.4090749  53.8470936  32.7662945   7.0501667
  55.0886440  31.9285345   7.2685748  29.8917389  17.4306345   8.1687254
  29.6538877  17.1292877   9.0455657  30.1596737  18.3411467   8.2928616
  51.2576437  52.4610424  63.6777067  51.6556931  53.2003260  63.2180929
  50.8204699  51.9587994  62.9900599  23.8671136  22.2804141  46.5675068
  24.4619942  22.6920724  47.1943140  23.5891461  21.4713526  46.9969082
  27.1769786  37.2280884  19.3954134  27.0401955  36.7795038  20.2298546
  27.2577572  36.5219283  18.7542856   1.6535321  77.9074907  19.9533474
   0.9189882  78.1094885  19.3738008   2.3892358  78.3986616  19.5876634
  55.6079626  77.8944588   9.5978630  56.1590910  78.5787630   9.9776280
  55.3357172  77.3633718  10.3462350  35.3993964   5.5027044  17.0008981
  35.0854683   4.6225449  17.2082651  36.0325575   5.6999707  17.6911330
  56.7660761   1.1796225  26.0882711  57.3643589   1.6108416  26.6984653
  56.2598896   0.5778916  26.6340971   4.1351673  27.1047783  22.3011470
   4.9035120  26.8662882  22.8198004   3.4041810  27.0496202  22.9166532
  58.3016539  39.9283552  57.0261192  58.0293655  40.8135986  57.2678423
  59.0374231  40.0590229  56.4279509  39.2845964  19.4848466  15.3360116
  38.6577129  19.9205256  14.7585750  39.5385885  20.1591802  15.9660876
   2.6635790  75.3480482  32.4817824   2.1046285  76.1021757  32.6691294
   3.2456690  75.2873087  33.2392216   1.5990567  25.3216243  13.1173384
   1.9786850  25.1996017  13.9875245   1.9068350  26.1847234  12.8406346
  16.8273687  59.6003771   9.3436611  16.3580453  59.3623114  10.1432192
  17.2461200  60.4356670   9.5514297  19.2625284  68.4630632  66.3009548
  20.1153946  68.2910299  66.7000198  18.6679935  67.8494930  66.7325687
  73.6393929  41.3186789  29.0275884  73.7562180  40.9157753  29.8879671
  74.3648767  40.9790802  28.5035849   6.1212367  13.4232593  62.1106339
   5.1911664  13.6309600  62.2004175   6.2281460  12.5955570  62.5793648
  70.7698727  46.5018463  30.6696153  71.0485697  45.9322309  31.3866210
  71.4704227  47.1494961  30.5920815  85.9387016  77.8806305  11.7764604
  85.6952190  77.8226995  10.8525598  85.6922913  78.7690353  12.0338404
  82.7678776  12.0663059   9.7545844  82.4434757  12.1662080   8.8595903
  83.1583405  12.9148006   9.9639249  14.4528735  32.7441549  26.7026520
  14.5245409  31.7992949  26.8380713  14.8005092  33.1285048  27.5074220
   5.2153826  54.7123766  15.2516103   4.4352132  54.1589785  15.2152801
   5.7179689  54.3696022  15.9906256  79.8075390  45.9242725  26.6542172
  80.0341320  46.4063120  25.8589029  80.6082153  45.9374475  27.1785903
  29.0735865  50.7628393  11.3664544  29.5576596  51.5285730  11.0573399
  28.6414671  51.0598803  12.1672499  54.9193573  43.0372572  53.0830574
  55.2847433  42.1526194  53.0715418  55.0130844  43.3232975  53.9916992
  32.9898787  50.8661938  26.8038559  33.6276793  51.5269852  27.0736575
  32.7023411  50.4624367  27.6227188  69.5512581  61.1854219   6.8606842
  69.0048695  60.7274675   6.2219590  69.7164726  60.5358315   7.5440341
  39.0517497  11.4945471  34.6297121  38.3220267  11.7574441  35.1906228
  38.6378860  11.0426557  33.8943601  30.2012205  34.7436404  28.4217119
  29.4490004  34.1571283  28.3417034  30.5853868  34.5259714  29.2709875
   3.6252514  74.4505787  13.6370277   3.5169756  75.3925228  13.5057187
   2.7327478  74.1046429  13.6373889  36.5253234  44.2943907  20.8079815
  37.0410132  44.7343874  20.1321888  37.1091819  43.6188555  21.1529350
  18.5589027  45.7167530   4.3436405  18.8816679  46.6170692   4.3821791
  19.3354893  45.1773262   4.4925198  29.3673062  73.9057875  47.1284533
  29.1945195  74.8005342  47.4213743  29.9534822  74.0082121  46.3786936
  58.9849949  68.1544876  69.5414114  59.9107122  68.2466555  69.3160725
  58.7043810  69.0409756  69.7686148  85.5585194  21.6663933  20.0401187
  84.6220112  21.7760563  20.2048945  85.6038284  21.0164595  19.3388557
  19.3311596  68.6058903  59.4810438  20.2139139  68.3515549  59.2121649
  19.4482589  68.9998293  60.3455257  36.1717796  66.0958195  54.3991947
  35.5163503  65.7958698  55.0290108  36.9078350  65.4949522  54.5150042
  16.3964975   0.5562382  13.6044729  15.8099937   1.1805263  14.0316844
  16.3508475  -0.2280754  14.1512823  33.3118296  28.8087296  14.2063236
  32.7538037  28.2321596  14.7282493  33.5603952  28.2796526  13.4483504
  11.3642013  21.3412833   6.7435002  11.8624401  20.7087421   6.2259269
  11.0459280  20.8391714   7.4937129  76.0038853  11.3907588   4.9522525
  75.6298780  12.1776330   5.3487128  76.0348082  10.7542419   5.6664807
  57.1371508  37.3486304   4.0375504  58.0337048  37.2428060   3.7193927
  56.5940571  36.9395614   3.3637947  29.2228413  28.1099319  13.3197582
  29.9028897  27.8563690  13.9438355  29.4123363  29.0262866  13.1182241
  82.1975231   8.7590653  38.9772630  82.8474140   9.4013655  38.6920881
  81.9644642   9.0319347  39.8646498  70.3528452  18.2411647   2.2863837
  70.0871992  17.4677479   1.7888999  69.9624443  18.1153727   3.1512523
  67.9429913  48.7378216  58.9016247  67.6229048  48.1325674  59.5705366
  67.4346113  48.5215712  58.1199503  84.6407032  15.2491832  48.6677504
  83.8630104  15.2647364  49.2255878  85.0475883  14.4016504  48.8476515
  25.0253916  71.0252285  26.5458679  24.4890189  70.2437544  26.4123034
  25.8632660  70.6891346  26.8640494  21.8590403   3.5578424  19.1447186
  22.4591422   3.1642401  19.7781110  21.1178327   2.9532051  19.1092789
  25.0488782  32.1040106   4.4512376  24.3825436  31.4169145   4.4625905
  24.6510339  32.8314018   4.9296239  24.7414565   7.1584082  14.3577719
  25.2338696   7.6755649  14.9951982  24.5242572   7.7791572  13.6622667
  46.2453890   7.5364316  58.9455128  45.7953024   7.1660239  58.1862688
  46.7525291   8.2665670  58.5906267  63.3124685   4.5176613  35.9344101
  62.7402639   4.0492180  36.5421700  63.3182716   5.4187745  36.2572002
  11.5025365  31.1701488   1.7814866  11.0392678  31.7141938   1.1445978
  10.8393157  30.9496284   2.4355048  17.2124815   9.7401226   3.1792864
  17.2117734  10.5005825   2.5979674  16.4334142   9.2447287   2.9265597
  43.1918335  33.8636303  53.5523415  44.1209459  34.0433550  53.6961555
  42.7779865  34.7267413  53.5532475  73.9249945  60.9360075  65.3379774
  74.0969849  61.3651180  64.4998121  73.5574102  61.6265345  65.8896017
  85.8591747  13.1579614  22.4401426  86.7677784  13.2143450  22.7359390
  85.9181118  13.1541467  21.4847660  18.6631882  23.0165577   3.9424124
  19.1387475  23.7984061   4.2231014  17.7523470  23.1927204   4.1781384
  39.9632525  65.6011152  13.7364399  39.4625998  64.9911547  13.1946588
  40.8439207  65.2272987  13.7666440  83.2950115  43.1822777   1.4256555
  83.3376026  42.7727604   2.2897819  82.7274132  43.9431190   1.5488927
  12.7751994  65.1311636  32.1556425  13.5398912  64.5798016  31.9898725
  12.4166393  65.3109837  31.2865448  58.7427902   5.5465221  20.9478903
  57.8638554   5.3952277  21.2954760  59.2347622   5.9030408  21.6875458
  23.5736561  45.6885004   8.1267697  24.3586254  46.1569929   7.8429163
  23.9017534  44.9994755   8.7045503  20.8170748  26.7237806  38.3021879
  21.4950371  26.2091208  37.8643250  20.6265664  27.4368358  37.6926875
  81.5539646  23.1273818  11.0387266  80.6850338  23.3731270  10.7212496
  81.5043354  22.1795893  11.1630607  49.3120575  15.1069248  24.3639994
  49.9652815  14.4988239  24.0179658  48.7352991  14.5605588  24.8979187
  49.4465065  72.3893309  17.0802200  49.8913527  72.8112745  17.8152800
  48.5152340  72.4666023  17.2875583  55.6561899   2.9031610  61.8649244
  55.8802700   2.1967605  62.4707460  55.5235386   3.6670488  62.4262762
   3.2191297  19.2231774  67.4062824   3.0392608  19.6135092  68.2615709
   4.1373560  18.9568663  67.4528742  77.5917006  80.3527927  67.4276114
  78.1018829  80.9883785  66.9256449  78.0255604  80.3170872  68.2800913
  29.8230839   8.1510717  42.2930145  29.9971437   9.0800488  42.1415663
  28.8792586   8.1060642  42.4459887  26.1572266  12.0090294  38.1114650
  25.3536201  12.4726844  38.3469939  26.3165760  12.2538030  37.1999145
  65.8092880  56.1265659  24.0388560  65.1459837  56.5315676  24.5976329
  65.3571701  55.9615803  23.2114482  61.1663342  14.4298804  35.2475405
  61.3946629  14.4289100  34.3179727  61.8635464  14.9357820  35.6648993
  51.1695099  71.0598326  15.2371180  50.7656670  71.6963291  15.8270431
  52.0640469  71.3785791  15.1169503  27.2849751  18.2383478  50.3119612
  26.8325067  18.6424363  51.0523796  27.6492095  17.4276352  50.6673622
  80.0072098  52.5203276  58.6014271  79.9164104  53.4695148  58.5175753
  79.9939442  52.1979094  57.7002621  22.3297501  81.7695141  17.0256627
  22.7055001  80.9009838  16.8818271  22.0390129  81.7566872  17.9375494
  57.3486567   0.3242742  12.4263585  57.8202391  -0.3801686  11.9818318
  56.6458750   0.5611327  11.8211925  21.5968323  72.7053404  49.6180010
  21.4478898  71.9821262  50.2271080  21.2566209  73.4756660  50.0730610
  33.6202455  36.5183163   2.5842801  34.1613555  37.1820760   2.1566662
  33.3920813  36.9038677   3.4301668   2.2199319  16.3767982  47.9111099
   1.8726821  15.6807220  47.3533201   2.8840664  15.9445608  48.4480715
  26.2745738  64.7487926  40.7451534  26.2182546  65.6457138  40.4156208
  25.6980205  64.7376823  41.5091515  45.2034187  53.5560846   1.8720989
  45.9109545  53.2420111   2.4351081  44.4345331  53.5753584   2.4419054
   9.6713704  37.6196218  54.2157698   9.6280128  38.5714173  54.1239119
  10.5327368  37.4550128  54.5994139  48.0553484  25.2073264  18.9853954
  47.3701859  24.9328041  19.5948362  48.0456924  26.1634803  19.0290570
  37.8509665   6.2684202  48.8700342  36.9922733   5.9407341  48.6026335
  38.4730601   5.7712626  48.3389330  15.9000695  48.7010241  60.8322716
  16.0562408  47.7566528  60.8317709  15.0151289  48.7976313  60.4804516
  76.0280657  73.2611370  64.3896341  76.1734486  73.6010075  65.2725744
  75.8660078  74.0397406  63.8569546  -0.0085089  57.8556061   2.2058526
   0.0355873  58.7764215   1.9482131   0.3290473  57.3783827   1.4478627
  36.5680337  11.5781665  26.0989165  36.6472387  10.7639086  26.5958500
  36.8475175  11.3463962  25.2132511  46.0331202  11.5244699  39.2104340
  45.4608059  10.7844365  39.4130182  46.6262627  11.5806389  39.9596024
  82.4864483  76.0054255  40.1438618  82.1072865  75.2039528  39.7831511
  81.8234444  76.3311577  40.7525969  37.4868059  21.8756413  64.2355490
  37.7369881  22.6454186  63.7245846  37.7029800  21.1331320  63.6714697
  84.3088818  77.2574377  33.7703443  84.6255589  77.6183462  32.9422760
  83.7787533  77.9582453  34.1499114  64.8845243  19.1221499   6.6642541
  63.9618015  19.0427172   6.9061255  65.2761984  18.2928407   6.9382465
  67.1096802  35.8433008  16.0305631  67.5076818  36.0939693  16.8642223
  67.5157404  36.4240503  15.3870738  14.2049217  13.2401419  21.2490058
  14.4544792  12.4545431  20.7623982  14.7272849  13.2016492  22.0501852
  34.7453284  14.8812842  55.2813435  34.0442491  15.5232549  55.1691198
  34.9773860  14.9396062  56.2081528  66.0444069  65.7321072  35.8270907
  65.8824396  66.5187550  36.3478494  66.5146112  66.0482121  35.0555897
  39.9776697   8.3533561  57.6274204  39.8740768   9.2187494  57.2316980
  39.1307330   7.9270673  57.4962378  76.5890990   3.2068922  70.8128212
  76.1635480   4.0593960  70.7212919  76.5201197   2.8102924  69.9443847
  75.5039549  27.1785808  15.4516900  76.0640240  26.8697453  14.7395277
  75.2230978  28.0506706  15.1745439  38.6145782   2.2846669  29.3462658
  39.3818569   1.8446612  29.7122025  38.4699726   1.8531916  28.5041547
  82.3651600  59.9743509  66.2735653  83.1966305  59.7575521  65.8517981
  82.2441959  60.9076786  66.0989046  68.3114338  69.9096584  36.5997362
  68.4874153  70.7608509  37.0006490  68.6940861  69.9733639  35.7246637
  78.3406925  60.7517242   3.0263153  78.5822630  59.8405838   3.1927520
  77.6563215  60.9392452   3.6687326  67.6085806   1.9078837  38.5218048
  68.0052328   2.6547450  38.9702415  68.2551479   1.6526483  37.8637481
  43.7094498  23.4571552  68.6475039  44.5366192  23.1983685  69.0537643
  43.0386782  23.1758571  69.2697334  68.0011559   1.6863763   7.7236229
  68.2168102   2.1200243   8.5492581  67.5023270   2.3396745   7.2331083
  54.6890068   9.7847414  51.0591030  54.3466091  10.2982831  50.3274775
  54.1393709  10.0315106  51.8029022  64.7678757  50.6842518  24.4986320
  64.6835899  51.0405779  23.6142349  64.9644709  51.4448118  25.0455570
  25.4412770  68.1781769  70.0455666  25.3742719  67.3764849  69.5268774
  25.9629631  67.9273224  70.8078957  26.5075421  26.1422443  42.1729612
  25.9827137  26.7168164  41.6156006  26.5601182  26.6033530  43.0101299
  46.8350220   1.4847815  66.9468975  46.8419790   1.6720730  66.0082245
  47.2066450   0.6055745  67.0184660  42.4927092  70.4041958   7.2113955
  42.2425413  70.9634924   6.4759827  43.1977844  69.8562765   6.8665886
  15.4287899  58.2084560  70.4336357  16.2706840  58.5457516  70.1275682
  14.7868598  58.5844851  69.8313427   4.1628933  76.7943811  67.6386738
   3.3205897  77.1132469  67.9628372   3.9380413  76.0531950  67.0762539
  32.0730925  72.0709562  40.6493187  31.9840097  71.1415386  40.4384136
  32.5494146  72.4406719  39.9059081  72.5264883  21.8936014  43.5271263
  73.2499075  22.3422050  43.0893469  72.9457855  21.1905599  44.0232658
  51.1639357   4.5801648  68.1043482  51.5307426   4.8516977  68.9457464
  50.6014967   5.3088737  67.8419065  79.6052647  81.1261749  69.7186852
  79.1384506  81.9302559  69.4911528  80.4700756  81.2308598  69.3219709
  41.7902422   1.0077837  55.5084705  40.9700203   0.5219921  55.5949020
  41.5792322   1.7309116  54.9178839  29.2811418  16.9964170  61.8939734
  28.3246565  16.9602787  61.9019175  29.5068431  17.1656179  60.9792805
  46.8976355  18.0095994  45.3518867  46.6338539  18.0240810  46.2719107
  47.8017044  17.6954937  45.3668499  21.7502236   1.4413613  62.8636503
  22.6177621   1.7869523  63.0738306  21.9085860   0.5299088  62.6178694
  69.2337227  51.3499928   3.4322998  69.2418909  50.9608889   2.5577909
  69.6044445  50.6734467   3.9989418  64.7284794  62.8389120   1.0812242
  65.4721165  62.8840494   1.6822204  65.1208925  62.6530647   0.2281671
   3.5089397  79.6312904  54.1844034   2.8266773  79.1825247  53.6850452
   4.1756341  79.8522282  53.5340691  23.0183983  60.7285976   0.0666906
  22.0809197  60.5516100  -0.0110395  23.4309745  59.8673677   0.0011469
  85.0612926  46.6800785  12.9310215  85.6306553  46.4783859  12.1884727
  84.4252205  45.9649467  12.9462993  38.8953376  37.1670103  65.3338671
  38.8270020  37.3213124  64.3916607  39.6856332  37.6385713  65.5971003
  11.4016783  21.5367937   2.7668571  10.5691409  21.3710713   2.3245342
  11.6402984  22.4254537   2.5030911  26.0606241  14.9555063  62.9605770
  26.8889380  14.5868719  63.2675552  25.8056092  14.3944836  62.2281456
  18.3390081  57.0094776   5.3508824  17.5329137  57.4118662   5.0275785
  18.2054019  56.9310045   6.2954581  54.2374992  48.4564114  10.1624238
  55.0114298  49.0045834  10.2919209  53.4985065  49.0492439  10.2990675
  80.7611275   1.0278399  58.9536715  80.2141857   1.7236924  59.3181944
  81.3610363   0.7981638  59.6633101  59.2255020  71.8419456  66.5330982
  60.0512838  71.3825035  66.3806772  59.3341732  72.6833248  66.0898161
  35.0640059  17.2615337  51.0276413  35.4193950  17.8386664  50.3517342
  34.1148376  17.3230600  50.9202957  34.2560911  39.7929502  18.2182240
  33.5194087  39.9252701  18.8149011  34.2288446  38.8596725  18.0073214
  76.2787199  56.6504812  20.5703759  76.6996241  57.3866606  20.1264000
  75.6704187  57.0584869  21.1865973  21.5808129  15.9357560  44.2289352
  22.1487379  16.1987376  44.9531841  20.8375168  16.5369534  44.2769480
  15.7151902  41.7701483   3.0672401  16.1395860  42.2489214   3.7792081
  15.7392347  40.8548737   3.3463854  22.1998620  71.0386562  66.3790607
  22.3244333  70.1393223  66.0758924  21.7058873  70.9503746  67.1941853
  46.4783239  32.4598980  67.2274637  47.2143745  32.2002888  67.7815962
  46.3454723  33.3871102  67.4245977   1.5882294  70.6005430   8.6136913
   1.7420720  70.7084131   9.5522696   1.0469057  69.8138046   8.5485744
  73.5430527  53.1885862   0.4861844  72.7923346  53.7819433   0.5103876
  74.2591238  53.7222385   0.1416701  76.0759544   2.4212605  39.5388389
  75.2883816   2.2511791  39.0220881  76.3403416   1.5602747  39.8629308
  36.3734555  28.0883813   1.3179174  36.0451508  28.4337521   0.4877569
  36.7018080  28.8572145   1.7840859  57.7052402  41.4934587  17.0168161
  58.1674957  41.2478065  17.8181958  57.3001814  42.3359489  17.2226357
  32.4851584  29.4820094  67.6026392  31.5468264  29.4542003  67.7897024
  32.8213644  28.6517477  67.9400778  46.6611862   0.7090468  57.7588844
  46.5401649   1.1355660  58.6072159  45.7980776   0.3559295  57.5430441
  54.9171925  22.3413777  23.3638620  55.2149773  22.1971703  24.2620611
  54.6198750  23.2511687  23.3532572  15.2189672  64.1304255  69.1686869
  15.5283844  63.3657980  69.6543217  14.2940140  63.9496565  69.0013075
   2.7909142  61.3006353  16.9427013   2.2049555  61.4811659  17.6777470
   2.2420594  60.8434200  16.3055623  11.4668560   0.5080087  29.3736291
  11.5503931  -0.2372170  28.7787414  12.2842550   0.9940811  29.2648864
  65.1387644  34.2673111  14.6085775  65.4803038  34.8396921  15.2955711
  65.4589939  34.6538949  13.7935698   4.6703056  74.3055201  60.4942083
   4.8234594  73.6137772  61.1378479   3.8885948  74.0224743  60.0198221
  17.4219549  71.4117432  23.4321046  16.5512836  71.7793798  23.2804251
  18.0173123  72.0140934  22.9860544  55.4792595  54.1676140  57.3109293
  55.3087378  54.8053932  58.0040312  56.4208841  54.0036297  57.3627138
  29.3095350  17.9423440  25.3346276  29.0750432  17.6289654  26.2081480
  28.5303283  18.4072554  25.0297880  78.4258842  76.0533762  22.9383826
  77.8679085  76.1923218  22.1731448  79.2569065  76.4684391  22.7073979
  55.6304836  49.7880173  20.6425714  56.2414217  49.0662384  20.7909703
  54.7784424  49.3636894  20.5415678  75.1162767  37.3986912  24.1105103
  75.6454897  36.8419838  23.5393357  74.5436716  36.7888498  24.5757532
  66.3989830  74.0281582   3.6183587  66.7567635  74.7681761   3.1278527
  66.4128733  74.3165493   4.5309758  13.8455892  71.0134697  59.6876192
  13.4649897  71.5895081  59.0246296  14.2923498  71.6062403  60.2919817
   4.7189474  70.4148483   2.9431510   3.8767603  70.8569002   3.0505827
   5.0424814  70.2956009   3.8360885  60.0747108  60.0786304  40.7656860
  60.7118177  60.3287315  40.0965261  60.5487347  59.4697046  41.3320255
  22.6346684  72.2884464   5.0892991  22.3700833  71.4639950   5.4973525
  23.0962729  72.7611732   5.7818896  76.9284725  19.9029088  52.2792482
  77.2050476  20.3829765  53.0598068  77.7443981  19.6969187  51.8231106
  32.8112245  16.8933904  40.1539278  32.0061064  16.7798793  39.6488237
  32.5355244  17.3613501  40.9421110  18.3033001   2.7730325  66.8817329
  18.8780463   2.5661016  66.1447906  17.4970675   3.0904070  66.4749241
   8.3611244  58.8445902  12.3207927   8.1151342  59.0767193  11.4253390
   7.7254176  58.1769371  12.5783777  28.4815764  47.6990891  66.9340897
  28.2505774  47.9568815  67.8265095  27.7858734  47.0965052  66.6711855
  48.2759619  37.3651695  22.8734565  48.7096214  37.3647022  22.0201254
  48.5209560  36.5277529  23.2670856  39.4097877  18.2642746  47.0051622
  39.2037416  18.3222103  46.0721970  40.2724648  17.8505707  47.0346832
  10.8402741   5.1276612  64.2254353  10.0320387   5.0631064  63.7166929
  11.0946202   4.2191753  64.3872786  59.6351671  69.8338938  27.7970266
  59.8066092  70.3243637  28.6009455  60.0645113  68.9896441  27.9353619
  21.8947077  36.1448717  40.9888172  22.2823858  36.0640740  41.8602562
  22.2176456  36.9837523  40.6598473  79.7318935  80.5063629   9.4013262
  78.9081764  80.8688354   9.7274202  79.5294142  79.5920610   9.2031103
  34.0274549  37.9719043   8.9943755  34.2428899  38.0442286   8.0645430
  33.3888650  37.2601724   9.0376210  66.4327288  62.7727127   3.2096720
  67.2748995  63.1605053   2.9717705  66.2183189  63.1660843   4.0555549
  77.7823496  78.8996458  70.2540588  78.0183601  78.3677721  69.4940329
  78.4397936  79.5950842  70.2731895  82.4635506  70.3123045  11.4171541
  83.3875656  70.4614162  11.6176474  82.3757267  69.3596172  11.3869762
  64.3768358  64.2535925  15.1135325  63.7417221  63.5375404  15.1022112
  63.8759136  65.0223780  14.8409963   5.4179728  10.5083048  29.0980506
   6.2063462  10.1731169  29.5250726   4.6998134  10.0278139  29.5098853
  18.6665332  76.5612745   3.6973196  18.0404568  76.8422556   4.3646333
  19.2269015  75.9281635   4.1460848  67.5409126  66.3987923  33.5619187
  68.3613300  66.0088968  33.2600498  66.8703270  66.0112095  32.9994893
  56.5975809  28.8200617  67.1476316  56.7107725  29.1981983  66.2756062
  55.6508112  28.8221264  67.2885418  72.4666405  62.7867270  19.5679975
  72.7817631  61.9211102  19.8280716  73.1623173  63.3860540  19.8383236
   2.0006253  71.9184017  60.4370975   2.0938009  71.4459562  61.2643480
   1.5375878  72.7227068  60.6714582  35.9004688  51.6676664  17.5222278
  36.3492441  52.4310637  17.8856194  35.6716657  51.9267559  16.6296172
  84.1991425  61.4397001  29.9983764  83.4966755  61.9798470  30.3603172
  84.3934822  60.8055449  30.6885314  12.6363444  10.5217171   9.7085977
  12.8358054  10.8177316  10.5967546  11.9540024   9.8604327   9.8241055
   1.3312967  79.5847034  69.3128490   2.2871658  79.6323919  69.3293476
   1.1403213  78.6605120  69.1527510  80.1568890  24.1901422   1.1458479
  80.8854294  23.8359332   1.6557512  79.8086214  24.8991990   1.6863851
  52.6289177  58.3986759  68.3943176  51.9779444  57.9362488  68.9221716
  52.7056551  59.2585039  68.8078785  59.6984339  38.8120914  21.8958497
  60.0378704  38.5410953  21.0428667  60.1342773  39.6456409  22.0732403
  36.9230485  20.5528474  59.1668987  36.2994480  20.8795691  59.8154402
  36.9195223  19.6033871  59.2883253  45.7388210  12.0357978  62.1695471
  46.6085577  11.7566192  62.4556398  45.1939201  11.2542939  62.2621059
  51.7504692  12.1170259  27.1691489  51.5053272  12.0205951  26.2489104
  51.8125391  11.2194312  27.4958038  30.9616375   5.6200546  48.0473757
  30.1451278   5.3667319  48.4779263  30.7858944   5.5044502  47.1135807
  58.0332041  54.5276070  31.2328768  58.8169479  54.3381453  30.7170510
  58.1815100  55.4074240  31.5795135  69.3056440  68.3104467   9.0462422
  69.8521042  69.0385342   8.7504286  68.4168386  68.5598135   8.7931246
  56.6055489   5.9710139  61.3042641  56.1304379   5.4872686  60.6286240
  55.9204102   6.3329041  61.8662691   4.2321074  20.7460642  50.6017447
   3.6034584  20.0343680  50.4812527   3.8839403  21.4650226  50.0743866
  59.2746019  58.2798672  13.7904751  59.2191696  59.0585995  14.3443155
  59.0530634  57.5544405  14.3743467  17.3674226  79.0232420  65.8282471
  17.2144198  79.6293545  65.1033640  16.6934144  78.3514547  65.7250690
   1.0300336  26.4110374  53.1119347   0.5746125  26.2024474  52.2962666
   0.3391161  26.7131114  53.7015247  72.5733042  79.6143246  69.3373203
  72.5482750  78.6719131  69.1716051  73.4916830  79.8547459  69.2148161
  11.5317965  58.5331488  45.8495331  12.4312758  58.2946205  45.6253099
  11.3725162  58.1036091  46.6899824  40.2926111  79.9974489  51.6024685
  40.8739519  80.7560730  51.5498543  40.2367258  79.6756649  50.7027102
  62.1501493  50.1445675   9.8165447  62.5254345  49.6833038  10.5666292
  62.6540136  50.9563065   9.7579765  80.1296043  18.3498538  53.7640095
  80.5349159  19.0312088  54.3003941  79.9245358  17.6485670  54.3823719
  66.3095474  41.1682510  13.6493659  65.9099245  40.8116961  12.8560162
  66.4329195  40.4080915  14.2178392   5.4372334  69.1742039  65.4105234
   5.5708885  68.2941866  65.0584650   6.1321557  69.2803717  66.0601711
  39.1365623  46.8339443  20.6320119  40.0412846  46.7032194  20.9159470
  39.0294957  46.2374449  19.8910964  50.7541466  28.4029984  23.8809443
  50.5266380  27.7925277  23.1796622  50.6638718  27.8898048  24.6838856
  53.2079172  53.9301729  30.1530409  54.0789032  54.3271208  30.1456428
  53.3645678  53.0053377  29.9623251  49.1539526  46.7400837   4.7622636
  48.9465141  47.5402212   5.2449441  49.4085646  46.1118698   5.4380989
  34.2660761  36.3648987  56.2321138  35.2193809  36.3003349  56.2893057
  34.0197492  35.7047892  55.5841875  49.9816132   8.8038230  62.3567486
  50.1178646   9.3777025  61.6028738  49.9405289   9.3982172  63.1059074
  30.1330209  49.7343969  35.3925514  30.4445720  50.3797245  36.0271525
  30.8691955  49.6134663  34.7928405  34.4733310  25.4563260  54.3117046
  34.8862600  24.8271751  54.9032211  33.5341096  25.3358340  54.4516230
  69.2461205  19.8276138  49.4978094  69.4557619  20.7271385  49.2465353
  69.8777580  19.2915857  49.0182924  23.9727831  36.5184402   2.7581614
  23.2117629  36.8295169   3.2483760  23.9768505  35.5714750   2.8977203
  13.9544153  46.1652136   7.8595245  14.0713704  45.2151918   7.8557342
  13.0258179  46.2929916   7.6655889  41.1508465   0.2398461  66.8754435
  42.0589113   0.1938863  66.5762138  40.6315851   0.0404066  66.0964584
  80.5734158  13.4581590  70.4860497  81.2107658  13.3677971  69.7776318
  80.7637405  14.3132508  70.8718300  45.8395243  10.7048440  25.9548926
  46.2948847  10.1591611  25.3137183  44.9290752  10.4120564  25.9150362
  62.7005863  52.7613258   9.0574330  63.4795189  53.3173847   9.0404814
  61.9670534  53.3759689   9.0380657  78.6239290  61.9548225  52.2871447
  77.7488947  61.7026281  51.9922876  78.9508295  62.5342703  51.5989542
  80.1106548  40.4067707  31.7969275  80.0774097  40.6978798  32.7081800
  80.3962231  39.4945455  31.8471789  83.5195637  22.7679920  61.2551737
  83.5887051  23.5604692  60.7227898  84.4184780  22.5829434  61.5270948
  10.3255093  47.9870892  51.4777946   9.5917487  47.9905939  52.0924616
  10.4947889  48.9125824  51.3016129  23.0821872  40.5066204  56.6222000
  23.4293461  40.0888109  57.4103260  23.7703967  40.3912449  55.9669971
  22.6671147  30.4353023  37.1541786  23.4247422  30.0905299  37.6267934
  22.3290277  31.1307263  37.7183723  20.4489827  56.8967867  47.9291153
  20.3489089  55.9473324  47.9981089  21.3866282  57.0480728  48.0481386
  55.7045269  12.5756133  68.4662199  56.0784721  11.7363548  68.1978178
  56.2549019  13.2310784  68.0376387  31.1600685   8.3692086  48.9187670
  31.8293166   8.6943567  49.5209455  31.5164423   7.5451148  48.5869503
  53.1427479  18.8284206  55.9862566  53.1738091  17.8959942  55.7721376
  53.8556671  18.9542437  56.6124725   5.5378246  46.2766886  19.4052804
   5.9030265  45.4742289  19.7780025   4.5942536  46.1186934  19.3745613
  47.9356861  43.1512833  30.0339317  48.7806797  43.4799480  29.7270107
  47.3156261  43.4118986  29.3528771  73.6538029  65.0002527  31.7935324
  72.8766584  64.4612980  31.9412065  74.1880894  64.4887447  31.1859703
  71.8718576  55.9028625  10.6431520  72.4700069  56.5147066  11.0722172
  71.7354870  56.2730598   9.7710347  73.2263041  55.7839394  29.1275883
  73.0070114  55.6346273  28.2078886  72.3949385  56.0255241  29.5358777
  57.5497341  54.8349857   1.5273044  57.7405834  54.5117760   2.4078402
  58.4064054  55.0579166   1.1630930  16.9679737  79.8337412  68.7244177
  17.6878428  80.0242424  68.1229782  16.2053025  79.7210979  68.1570768
  51.7102003  57.6738405  12.9873013  51.4467955  58.5348797  12.6625466
  51.0174322  57.4266863  13.5998535  60.3482771  72.3906326   2.8276017
  60.1544237  72.6364660   1.9230470  59.6386719  71.7963696   3.0716214
  68.8953876   7.4705386  69.0379429  68.6624146   8.1620777  69.6574020
  69.3026257   7.9325771  68.3052015  57.6608372  17.0628095  17.7748024
  57.1180725  16.4103663  18.2174730  57.0518637  17.7644277  17.5443304
  53.0578232  24.0023065  56.1259890  52.5992775  23.2215738  55.8154631
  53.8657618  23.6668944  56.5145302  74.9801779  79.2677212  42.7341700
  74.7797012  79.0412331  41.8260145  74.3355036  79.9376297  42.9618597
  14.2707586  54.4695330  15.6275880  14.6831417  54.0934467  14.8499441
  14.3583703  55.4155970  15.5113268  39.1292667  20.0643301  62.5721741
  39.1742587  19.9276114  61.6258621  39.9283028  20.5475330  62.7826214
  50.6840086  73.1041718  32.0332408  50.5470991  73.9084530  32.5338531
  51.3527298  73.3344221  31.3882375  66.9424629  71.3572550   3.1497213
  66.8361759  72.2871017   2.9489270  67.6828241  71.0789108   2.6106286
  71.0152006  64.5290804  13.9188719  71.4989758  64.2449760  14.6944249
  70.1594973  64.7958755  14.2547631  85.5592155  16.3085485   2.1165682
  85.8975220  17.0079768   1.5574804  85.5542469  16.6862166   2.9960984
  74.3643999   4.2404354  46.1212063  73.9050627   4.8613465  45.5557775
  74.7808361   3.6275047  45.5152941  83.1294441   1.4271377  62.2242165
  83.8767719   1.7470729  61.7188740  82.5118542   2.1584402  62.2275543
  75.1599741  72.0635128   7.5219840  75.4899979  71.1684847   7.6009667
  75.4091787  72.4841738   8.3448911  52.0022678  41.7839146  69.4994879
  52.8245640  41.6966486  69.0173674  51.3349819  41.4570379  68.8960695
  12.7529716  19.3397200   9.1753185  13.1751215  20.0661016   9.6340019
  11.8199790  19.4509447   9.3580365  72.5298929  20.9040093  40.1013374
  73.1820679  20.9776545  39.4045758  72.2973156  21.8091536  40.3083515
  19.8130131  41.9092751  32.2032142  20.5024600  41.3663769  32.5855160
  19.5652294  41.4513063  31.4000344  46.8423128  23.9381504  67.3777819
  47.2500563  24.7635746  67.6397896  46.8202734  23.4166074  68.1801128
  55.3063345  69.2138195  36.0684204  56.1502934  68.7975168  35.8933496
  55.2236605  69.8827410  35.3887582  17.4238491  79.6780729  56.0202217
  17.6351953  79.7742939  55.0916147  16.5548587  80.0692940  56.1098671
  68.3787012   5.8385235  63.6873865  68.9175463   5.2517712  63.1567287
  68.1425095   5.3179717  64.4551563   6.7382312  78.9998102   9.2826116
   6.0158724  78.5963058   8.8013482   6.3792044  79.8266268   9.6046466
  56.2395954   8.3747190  46.4983034  57.0989704   8.1635529  46.1334562
  55.9649324   7.5731784  46.9436407   2.6859915  64.1792011  34.2767739
   2.9230332  64.7942162  33.5826540   1.7813614  64.4024563  34.4959426
  30.9537482   0.8457302  59.2830706  31.3535833   1.2029877  60.0759935
  30.6780601  -0.0368531  59.5306063  30.4279466  37.3337076   0.3910773
  31.1942478  36.7779110   0.2492945  30.0632854  37.4666355  -0.4838999
  43.2158375  38.7809587  11.6538799  42.3276472  38.8242698  12.0081055
  43.7376356  39.3190145  12.2492385  78.2109547   2.5100863  36.9151497
  77.5432873   2.4864410  37.6006365  78.6269951   3.3662868  37.0154595
   0.4667877   1.4426599   7.7589679   0.9045234   1.2021563   6.9424033
   0.9107551   2.2419333   8.0423170  81.5635586  52.6797342   9.0087962
  82.1105099  52.6629448   8.2234353  81.3722229  53.6072874   9.1476333
  56.2717867  40.0353527   5.9606159  55.3554106  39.9550414   6.2252623
  56.3148022  39.5976472   5.1104426   8.2313377  20.0270510  57.5755596
   7.6530915  20.3102636  58.2838345   8.7198997  19.2914319  57.9448843
  80.4972553  58.5656643   6.8862802  81.3316250  58.3126640   7.2813004
  80.5966091  58.3512640   5.9587079  50.6834412  10.8568430  60.6248951
  50.4193115  11.7740834  60.5532169  51.4161873  10.7702506  60.0151300
  63.4939575  68.6441612   4.6469256  63.2118368  69.2891073   3.9983213
  63.0890465  67.8249741   4.3619531  86.1762333  47.0919657   1.3411796
  85.7562351  46.3886881   0.8459702  86.5372467  46.6580248   2.1142220
  40.8317184  31.3822412  56.7531347  40.7078362  30.4641724  56.9940376
  41.6534758  31.6319680  57.1757317  80.1703167  74.4597149  19.3862593
  80.6010914  75.1241112  18.8484490  79.2584991  74.7465801  19.4365764
  32.6412106   2.4918900  64.4199657  33.5564756   2.3100007  64.2068052
  32.6706505   2.8710532  65.2983761  26.6193986  31.4089274  43.9054775
  25.6718159  31.5423989  43.9279127  26.9849777  32.2928143  43.8690376
  60.1301813  15.4937553  46.2046289  60.3742170  15.1210821  45.3573990
  59.2960644  15.0758815  46.4187813  27.8981924  25.7427096   0.0711389
  28.3285642  25.4548907   0.8762315  28.4806919  26.4134908  -0.2852025
  65.7003212  36.8060994  53.0522871  64.9250603  37.2859716  52.7608776
  65.7171965  36.9317675  54.0010548   0.0141823  30.3114986  25.5917382
   0.3187902  30.9236145  24.9218416  -0.0507205  29.4716763  25.1370740
  46.9881392   6.5692657  48.0142498  46.9276047   5.6270397  47.8568411
  46.2104511   6.7759496  48.5326242  59.2069578  69.1133022   8.4300268
  58.2914972  68.8360119   8.4656304  59.3342161  69.4040012   7.5269580
  55.6089115  57.4986792  64.4647741  55.9826040  56.9670296  63.7619686
  54.6906614  57.2314072  64.5049238  16.7457032  51.5150785  37.2039127
  17.2824836  52.0908451  37.7485108  16.3329351  50.9146023  37.8246260
  64.6889067   0.3367114  14.7341537  64.9739552   1.2133406  14.4762778
  64.2055273   0.4721141  15.5491650  25.0280952   8.4037340   6.4622074
  24.4637322   9.1627920   6.6090375  24.7965622   8.0992901   5.5847460
  55.0193071  57.6627684  50.3405952  55.1664829  58.6033058  50.2408075
  55.3826237  57.4534559  51.2010717  64.0210676  18.3595228  11.2538671
  64.9316740  18.6319888  11.3669467  63.5163832  18.9931560  11.7638040
  66.3399458   6.5593445  54.5489597  65.5314064   6.1015964  54.3188190
  66.1397600   7.4846905  54.4079161  14.8520505  81.3830948  58.5898352
  15.3167582  81.1027050  59.3782949  14.2246854  80.6806183  58.4190226
  75.1975632  75.7850027  14.4431305  76.1204529  75.5637646  14.3183768
  74.7213936  75.0976849  13.9772010  50.4629898  47.7597666  61.5844297
  49.5134783  47.8468895  61.6684723  50.8102322  48.1297874  62.3960590
  61.6899109  62.7503777  35.7610679  61.3500357  61.8702126  35.9223890
  61.9764185  62.7328491  34.8479199  44.5678091  18.7403607  59.8386717
  45.0371456  18.5482275  59.0268564  45.2150154  18.5969913  60.5291796
  24.5758653   1.9922285  38.8626766  25.0535250   2.8207642  38.8226485
  24.3669271   1.8807854  39.7901249  37.7726531  39.5726418  56.7999983
  37.6048255  40.1301718  56.0402441  37.5355101  40.1150608  57.5521803
  85.3096008  11.6208565  65.5214834  84.9608231  12.3770142  65.0494528
  84.5604515  11.0331023  65.6191778  33.1648421   3.8370547  67.3909616
  32.2566414   3.8179949  67.6926899  33.2547402   4.6845889  66.9552612
  44.0546131  28.3103871  58.6530781  44.2686939  28.1723666  57.7303934
  43.5679770  27.5258803  58.9059925  47.4305534  24.4633031  58.5765076
  48.3626318  24.5724225  58.3879471  47.3223734  24.8140097  59.4605541
  64.0646553  43.1928158  68.1494427  64.3626785  42.9371452  67.2764874
  64.8311377  43.0704546  68.7095833  69.1632414  41.5307665  11.3637662
  69.9035788  41.7033958  10.7821023  68.3906078  41.6796112  10.8186865
  24.9313164  61.4204311  67.8759098  25.6573248  61.5154314  67.2593737
  24.3059278  62.0966911  67.6155376  60.8258629  55.9607077  48.6103725
  60.0332880  55.4328728  48.7075901  61.0479832  55.8905220  47.6819468
  45.5381584  35.6259203  64.2250013  44.8937130  36.3084340  64.4123554
  45.0287199  34.9165273  63.8332558  77.1378136  79.0533113  17.9111326
  76.8682528  79.6188021  17.1874022  77.1335077  78.1709623  17.5400817
  46.9072819  40.7138538  11.1172926  47.2205830  41.5692902  10.8235240
  47.6299047  40.1157475  10.9267187  29.4381022  32.2400022  66.6312218
  30.1962757  32.2996235  66.0499763  29.0263557  31.4065456  66.4030838
  59.3896294  16.2027872  23.4399939  59.7284269  15.3942204  23.8242698
  60.1658821  16.6537249  23.1078458  36.1470199  20.7048893  56.6071939
  35.7311392  20.6296158  57.4660349  37.0757580  20.8316875  56.8010902
  56.6152477  39.8975897  19.2720985  57.0916796  39.3048143  18.6908376
  57.2965765  40.4322910  19.6796739  30.6184173  27.0358014  44.4908142
  31.1026001  26.6459513  45.2186966  31.2691450  27.5597191  44.0235901
  54.2466021  30.2088094  63.6632490  54.1429901  30.8329201  62.9449320
  53.3664513  29.8612785  63.8074112  41.8209696   3.9945000  44.0924978
  41.7984343   4.6121523  44.8234081  42.7419901   3.9631698  43.8337040
  51.2118626  45.5237865  56.6343021  51.6112471  45.6197643  57.4988890
  51.6670465  44.7789478  56.2415504  60.8348560  54.5397282   8.2467318
  61.3256121  54.3427706   7.4488592  59.9513721  54.2162704   8.0705070
  78.8168478  39.6926832  67.7012014  79.7099113  39.5355940  68.0077839
  78.2741976  39.5938802  68.4835005  59.6336651  71.9634247  39.3483901
  60.1594973  72.2408009  38.5981917  59.7692108  71.0172319  39.3991494
  81.6711617  49.0382338   5.3024495  80.9020519  48.5257721   5.0532717
  81.6303635  49.0823221   6.2577635   3.7498125  16.9908190  28.9153433
   4.2046815  16.9909501  28.0731273   4.3755865  17.3809981  29.5255876
  32.3887300  77.7504301  54.6787119  31.7369199  77.7043819  53.9792442
  32.1438551  78.5258961  55.1836157  38.1741166  64.7258377  40.1297855
  39.0261984  64.6190643  39.7069526  37.5691748  64.2298603  39.5781708
  32.7543664  30.8967686  27.6152968  32.7889156  30.5966425  26.7070222
  33.1629276  31.7622066  27.5972819  77.0766449  55.6839800  12.8372419
  76.2708855  55.7933187  13.3422434  77.3256636  54.7705698  12.9783499
  24.7311211  10.5479908  50.2875090  24.0665865  11.1674786  50.5889368
  24.2841411  10.0205398  49.6255112  72.7509069  22.9377198  20.8945584
  72.9041910  23.8697338  21.0497618  72.0974159  22.6902747  21.5487361
  27.0917630  22.2164965  28.8419294  27.5213647  21.9265056  28.0372047
  27.6983547  22.8522301  29.2215610  76.6976976  36.1929059  22.2456741
  77.1425152  35.3536940  22.3644018  76.8039179  36.3907504  21.3151860
  36.5895724  34.1425800  57.2755623  37.0211530  34.8850894  57.6982307
  35.6844807  34.1841578  57.5842905  59.8849583  20.0974369  55.4795885
  58.9551401  19.9389267  55.6424999  60.2566767  19.2255950  55.3456211
  31.3718009  36.6531682  50.0944328  31.8363094  36.3305354  50.8666849
  32.0601702  36.8046498  49.4467974  36.9471860  14.7244048   8.0709273
  37.3313498  15.4379380   8.5803586  37.6946020  14.1849804   7.8128093
  45.5415249  45.8170319  57.4800873  45.4283571  46.6985273  57.8355980
  46.4896059  45.7093048  57.4041224  36.3524675  35.0202990  33.1981730
  35.6485271  35.4331732  32.6979351  37.0992255  35.0127530  32.5994015
  37.7013516  37.9462814  62.6581049  38.2830524  37.8212833  61.9082880
  37.1917009  38.7261844  62.4384689  32.4760270  11.4827979  55.5427456
  31.9257259  10.8951676  55.0249720  33.3636808  11.1439216  55.4267025
  43.2528877  51.6605663  68.6534214  42.8538084  50.8155441  68.4462929
  42.7167845  52.3000145  68.1844568  79.8939610  26.7973614  18.2019997
  79.7374296  26.7596984  19.1455615  79.0198803  26.7690468  17.8128862
  16.0713255   2.9316935  31.0505080  15.6684327   3.5659859  31.6434526
  16.2544632   3.4307170  30.2544761  46.0019445  32.9094648  49.4094086
  45.9190464  33.4413290  50.2009106  46.1752081  33.5424209  48.7125731
  30.1105905  27.1614861  69.1653252  30.1719236  26.9117737  68.2433128
  29.9822807  28.1099010  69.1485834  34.2864084  12.0782506  70.3212357
  34.7661448  11.7713284  71.0905743  34.0274215  11.2774682  69.8652649
  26.7289448  18.6020195  62.4271441  26.7381215  19.4879580  62.0648432
  27.1034169  18.6974859  63.3028650  32.2760987  79.1854000  63.5873890
  32.6525640  78.3057594  63.5601807  33.0228186  79.7696733  63.4559917
   6.6309595  74.7149658  16.0376561   5.7213235  74.5967150  16.3111722
   6.6173440  75.5033922  15.4950416  12.1530271  21.1880279  67.5641251
  11.8423319  20.2983236  67.3964024  12.0139945  21.6500998  66.7374516
  84.2921638  67.8744698  10.5730200  84.2224693  67.1805573   9.9173808
  83.5401726  67.7362537  11.1489069  33.7323904  61.7750263  20.0894880
  34.5700169  61.6397524  19.6464121  33.6541128  61.0306787  20.6861854
  68.6356258  24.4277358  65.1002121  68.9094162  23.7830162  65.7526016
  68.9531279  24.0764093  64.2683506  85.8026505  38.7639260  10.9104574
  84.8721218  38.7412858  10.6872070  85.9009266  38.1020021  11.5948772
  37.7199244  22.2180986  66.9083071  37.7003145  23.1629968  66.7566013
  38.0451369  21.8502927  66.0866070  18.1733704  58.7141466  14.8092031
  18.2244968  58.5450411  15.7499588  18.6969554  58.0182409  14.4119573
  47.5289822  37.9129267  51.9259501  48.3652830  38.3433151  51.7482042
  47.0908213  38.4899688  52.5514650  78.3799982  71.3601112   8.6212111
  78.3087397  72.1726847   8.1203359  78.7631178  71.6266918   9.4569045
  68.7137604  62.8762817  12.3663938  69.3156385  63.4936476  11.9506562
  68.8976002  62.9560041  13.3023846  47.7188730  14.4111383  63.0584383
  47.1051073  13.7488282  62.7408361  48.1643248  14.7223639  62.2704411
  72.6527596  44.7246313   6.4221108  72.6571560  44.4165230   7.3283553
  73.4802580  44.4099855   6.0581410  66.2601805  58.7997627   9.7749418
  66.3465071  59.2099237  10.6354940  65.3980160  58.3843374   9.7930187
  13.2189393  57.4316788  20.3040481  12.3247087  57.5122881  20.6358433
  13.3743548  58.2503605  19.8330462  37.3233390  28.3654547  48.7968397
  37.6035309  27.5702262  48.3437014  36.4000773  28.4615755  48.5632133
  70.2210855  70.4757690  11.2909591  71.1132765  70.7583094  11.0899556
  69.7293568  70.6454611  10.4874432  41.1396122   5.7877898  65.0862551
  40.9287119   5.4054534  65.9380579  41.5676975   5.0795722  64.6052122
  85.5263230  22.1715474  54.6994448  86.0840035  21.7306924  55.3404331
  86.0008119  22.0890617  53.8722277  37.3638439  28.4172034  58.8742542
  38.2448888  28.2171297  58.5580873  37.2233844  29.3317842  58.6292219
  12.2037637  32.1286631  56.1241722  13.0685580  31.7192197  56.1509705
  12.3810017  33.0507922  55.9384489  75.0908852  78.6914587  14.4891644
  74.7656345  77.7917433  14.5200503  75.5468893  78.7526131  13.6497867
  63.8608789  37.7974820  59.8960972  64.6714354  38.0116153  59.4341755
  63.7028694  36.8765783  59.6882486  79.2709112   7.8568023  23.7332582
  78.6660719   8.5894394  23.8500667  78.7513399   7.0812142  23.9447832
  34.6185303  10.7921147  46.6695595  35.3776455  11.3741493  46.6347504
  34.8570848  10.1256192  47.3138475  40.2291346  22.5440168  57.6964712
  41.1675453  22.3667049  57.7611303  39.9252391  21.9717216  56.9919443
  35.6182957   8.1779855  25.7796717  35.9709001   7.5719112  26.4312649
  34.6867108   7.9632145  25.7321763  20.4581642  59.0182209   5.4084808
  20.3372121  58.1787682   5.8522373  19.7801900  59.0318871   4.7329092
  10.7952905  76.9584942  43.4545755  11.0128605  76.4546442  44.2388153
  10.4530215  76.3092709  42.8400898  23.3864665  45.5058956  42.4580431
  22.7214336  46.1434507  42.1982670  24.1226959  46.0375404  42.7606106
  31.0149169  69.1939783  33.3077383  31.1342573  70.1427603  33.2652378
  31.0512710  68.9068985  32.3953247  52.8498125  66.8849707  39.3537450
  52.7247047  65.9870052  39.6607304  51.9716454  67.2657251  39.3627858
  19.4594097  61.5883589  56.9738770  18.5492671  61.6413212  56.6822195
  19.6848989  60.6620646  56.8880701   7.5674421  55.2924252  35.2683330
   8.4426129  54.9065828  35.2305007   7.6702237  56.1584282  34.8737311
  25.5093455  79.5086813   6.3600922  26.0543537  80.2776241   6.1929548
  24.6369457  79.8652506   6.5274602  70.4518270  39.7486305  41.0038042
  70.9834671  38.9612770  40.8869123  69.9863148  39.8487616  40.1734352
  65.4938078  41.2450647   4.6695602  65.4706717  42.0520067   4.1552263
  66.3041639  40.8125687   4.4003025  29.3072820   2.7212626  37.0304513
  29.8350096   2.0175329  37.4079418  28.4214425   2.5558755  37.3531961
  27.4730682  66.2893867   0.6342484  26.6639090  66.0077810   0.2074099
  27.2404671  66.3697720   1.5592706  74.0191412  10.1855493  53.8135242
  73.1900644   9.8607409  53.4622955  74.5351458  10.4112041  53.0395365
  64.4793415  79.0069771  30.3881097  65.2991867  78.6193180  30.6943893
  64.0536070  79.3265295  31.1836386  71.6363144  52.3108912  51.1722374
  71.4091206  51.3853598  51.0827398  70.9655619  52.7719593  50.6685114
  14.9370742  20.2920794  67.5337982  14.8022747  21.2114501  67.7636242
  14.0737498  19.9854410  67.2565317  72.5569677  69.4939375   5.5366075
  72.3553610  69.4713020   6.4720613  71.9399309  68.8766432   5.1436085
   4.0542388  53.3566189   1.3556758   3.1001997  53.4252739   1.3921194
   4.3682045  54.1478109   1.7934769  19.1714573  65.0244617  34.3653846
  18.5386086  64.4233322  34.7582889  18.6493766  65.5724955  33.7794447
   1.6544507  23.9407039  23.9139199   2.3619732  24.0916800  23.2871437
   1.1081162  23.2714605  23.5017753  14.4162083  14.0640938  69.1802835
  13.8967574  14.4851291  69.8652172  15.2029872  13.7572289  69.6308899
  48.5919762  17.6301610  12.8387976  48.4008646  18.3138716  13.4808624
  47.7745342  17.5230885  12.3524320   2.3651941  66.1958265  24.6973681
   2.1641420  66.7049408  25.4826164   2.9906225  66.7365360  24.2149758
  12.0244586   5.2183700   2.2615176  11.3615906   5.4359734   2.9168689
  12.7391422   5.8322287   2.4307445  60.7699203  57.8045845  21.9444489
  61.0369635  57.2822237  21.1881018  61.3466644  58.5682440  21.9237804
  84.1319466   6.0920870  60.4569292  83.2553005   6.4702225  60.3881550
  84.2045784   5.8206040  61.3719463  37.3742962  64.7156811  22.5114584
  37.4370885  65.2270460  23.3181787  37.2253633  63.8178396  22.8079867
   4.5286116  22.9985833  59.9481678   4.9682140  23.5884690  60.5605555
   3.7554964  23.4843540  59.6608543  46.8426466  18.1820834  27.4381185
  47.3248386  17.7073348  26.7611122  47.4550343  18.8513255  27.7436185
  67.2372055  42.7494192   9.9735862  66.8756056  43.4745502   9.4640177
  66.4696741  42.2881651  10.3117776   0.4188597  33.6252832  35.1140332
   0.5007543  34.3555021  34.5005941  -0.5232164  33.5400319  35.2605152
  39.3837571  23.2750463  11.8957353  38.7922096  22.5238204  11.8513989
  39.3830085  23.5263062  12.8193700  32.5194645  17.4623954  16.4412737
  31.7204928  17.1843660  15.9934187  32.6880813  16.7711067  17.0815241
  13.9268279   9.5938069  22.8340387  13.9242613  10.2244234  22.1139359
  13.7777925   8.7477040  22.4119830  24.6302533   1.5555739  23.9093876
  25.1978064   1.8335044  24.6283245  23.7830162   1.9559988  24.1045380
  10.1667666  45.3087807  56.0443687   9.6223390  45.2835989  55.2574825
   9.5457548  45.4378366  56.7612505  51.3770771   2.1636978  13.2935274
  50.7481623   1.7852841  12.6791191  51.9333410   1.4282367  13.5502410
   0.4966258  19.6971357   2.8801432   0.4315045  19.2144990   2.0560968
  -0.0579529  19.2085207   3.4883612  83.1674004  15.5574417  42.9970980
  82.5247192  15.2455521  43.6342096  83.5245132  16.3549268  43.3878946
  13.5699379  62.9702091  66.3304996  14.3615949  63.3736134  65.9744453
  13.8916147  62.2546577  66.8789053  37.4061298  53.5503387  64.8635340
  37.2299552  53.7670565  63.9479876  38.0407786  52.8349590  64.8224831
   9.1325206  36.7820048  47.2498083   9.6677947  35.9885764  47.2634554
   9.0490490  37.0304728  48.1704235  83.0350876  56.2709618  15.4506731
  83.8334084  55.7672071  15.2920818  82.5843716  56.2776375  14.6062565
  28.2786131  21.3043523  68.6827707  27.9688215  22.1492982  68.3566904
  29.1083312  21.5044498  69.1160774  75.0944710  33.1192422  36.1721349
  74.5502090  32.3582840  35.9697604  75.6615305  33.2183290  35.4073763
   7.1094161  51.6843796   2.5535521   7.3208147  50.9864712   3.1736055
   6.1527848  51.7165470   2.5461611  63.0999851  66.5049791  21.5398479
  62.3922682  66.4897871  20.8955359  63.5476685  65.6669378  21.4236951
  78.1438160  59.2216635   8.0597347  78.8680267  58.8485861   7.5571775
  78.5034466  59.3523932   8.9371216  19.2756033   4.7634023  17.6115978
  19.6656311   4.0190589  18.0699229  19.9581242   5.0576365  17.0084202
   6.1102068  11.4549208   5.6423181   5.2263039  11.7746520   5.8232033
   6.0981500  10.5419612   5.9297037  20.1986814  34.0236163  66.5714025
  20.0007200  33.2680440  67.1247149  20.5146194  34.6906233  67.1809244
  41.6055888  56.4466224   0.1832001  41.6538840  57.3984872   0.0945847
  40.7507950  56.2863611   0.5830424  57.2252321  22.7179670  45.4091740
  57.5232553  21.8087053  45.4347658  57.8584766  23.1617785  44.8450184
  48.9910460  26.4632797  30.7858920  48.5134792  26.5831208  29.9650383
  49.3920326  27.3155689  30.9563279  78.2750893  67.4286556  41.7550993
  79.1176844  67.3888683  41.3026810  78.3979034  66.8915319  42.5378180
  79.6044350  41.4431810  53.0669260  78.7737751  41.0412550  53.3212709
  80.2250576  41.1543179  53.7359667   3.3786464  52.1836090  12.4666917
   3.9851588  51.8566656  13.1311345   3.4410042  51.5492535  11.7525923
  79.2035961  28.5167909  66.6300201  79.0894079  28.8251877  65.7310820
  78.3491373  28.1587768  66.8707705  34.0131712  50.6050444   3.5582209
  33.4341502  50.3187561   4.2646253  34.5875669  49.8556995   3.4008029
  61.4861917  74.9582767  11.8601990  61.3997889  74.6443892  10.9600651
  62.2081852  74.4459915  12.2242320   4.3021217  51.2738705   3.0764842
   3.9894852  51.7427111   3.8502291   3.8946763  51.7291880   2.3396617
  44.8858023  44.7410917   9.0525991  44.4498873  44.0981483   9.6119171
  45.6158066  44.2617893   8.6606866  70.4147625  74.1312361   1.8441941
  70.1495981  73.5058880   1.1697641  70.1707268  73.7116051   2.6691705
   5.3937954  26.3270378  24.4957185   4.9359560  26.1585546  25.3192639
   6.0165274  27.0229244  24.7059011  46.2707949  37.5097108  49.2170429
  46.4255762  37.6008201  50.1572418  47.0655823  37.0941234  48.8826275
  57.8832102  68.5336494  29.8756337  58.5867262  68.3951998  29.2414951
  57.8733778  69.4799042  30.0196576  65.1396656  69.7881269   1.1280867
  64.6710873  70.4085016   0.5696962  65.4045820  70.3040695   1.8895699
  26.8166399  15.0645280   0.6739630  27.4004102  15.7190526   1.0574250
  27.3688984  14.5821714   0.0586789   9.9679321  63.8449097   8.4805864
  10.5086255  63.2549334   7.9554087   9.7111714  63.3220530   9.2401445
  76.9374180  12.5515628   1.7398123  76.0333490  12.7047408   1.4651696
  76.8598509  12.0336151   2.5410271  63.5247850  59.0972328   0.6570766
  64.0154600  59.1508770  -0.1630405  63.7759161  59.8855543   1.1384377
  53.7101078  77.7228642  65.6250763  53.6607599  76.7696571  65.5530643
  54.6394825  77.9047394  65.7643986  57.1542645  32.6175332  58.6445475
  57.2989941  32.1961904  59.4917536  56.8818903  31.9051290  58.0661678
  84.1435528  23.0802703  36.9205594  83.6543369  23.1240892  37.7421355
  85.0467491  22.9107428  37.1883607  59.7767210  18.9763486  58.6992121
  59.6051788  18.0380201  58.6195564  59.0161705  19.3199217  59.1679907
  25.0220323   7.4541801  66.3546562  25.7533002   6.8914211  66.1001301
  24.4016695   7.3835963  65.6291246  36.3946199  15.4913449   5.5180717
  36.6084504  15.2814329   6.4271617  35.7823110  16.2245381   5.5792058
  64.5135355  50.9089470  67.1705675  65.4226112  50.9481287  66.8734550
  64.3737984  49.9885607  67.3932695  50.1180124  64.9167013   0.2951262
  50.2229929  65.1749563   1.2108314  50.7194138  64.1804409   0.1834580
  76.3309336  50.9401846   1.6287784  75.8996677  51.5120029   2.2638096
  76.4310360  50.1058054   2.0870605  54.4371367  49.7060251   0.9428255
  54.5155478  50.5973864   1.2827574  54.1178703  49.8183632   0.0474598
  78.2637262  24.1790438  44.3148661  78.8936806  24.0963721  45.0307941
  77.9207945  25.0687242  44.3991184  24.9787569  43.1314230  68.7867832
  25.5128741  43.6653185  68.1986475  24.2536783  42.8265142  68.2413244
  41.6852427  14.5453656   5.4956549  40.9691000  15.1741934   5.5847979
  42.4793386  15.0751841   5.5658954  47.4767256  43.7197113  62.1977806
  48.4219217  43.8174248  62.0825338  47.1059799  43.9573479  61.3478947
   9.3275696  66.3588762  25.1978731   9.7585845  66.2162733  26.0405612
   8.8063705  65.5681896  25.0585938  29.1980624  48.2219744   0.4174853
  29.7580934  47.6329803  -0.0881669  28.9612985  47.7177954   1.1959314
  13.3983219  40.4164600  25.6781888  12.6407492  40.8527184  26.0680556
  13.3878863  39.5364404  26.0545969  28.7348700  32.4291205  50.9978914
  28.8049674  31.7910075  50.2878714  29.2967319  32.0801997  51.6898441
  41.4973688  72.0361471  47.7476692  40.5846453  71.9042826  48.0041456
  42.0020676  71.5508747  48.4003687  36.4526320  78.8398838  29.8736882
  36.4018297  78.0583429  30.4240060  37.0666337  78.6037159  29.1783762
  25.0929689   5.4982877  18.8868475  25.9007072   5.6646502  19.3727636
  24.4210601   5.4085839  19.5626605  20.2373433   0.8956183  10.6559563
  20.6689835   1.4368856   9.9949348  19.6533966   1.4989732  11.1155200
   7.9466558  48.4026194  40.6596184   7.0119530  48.5831213  40.5597115
   8.1177384  47.6824903  40.0526762  52.2088337   5.0435436  34.1923809
  51.5873146   4.8339850  34.8895407  53.0653572   5.0158286  34.6187949
  56.5213537   0.4733802  45.1789045  56.4545965   0.6555849  44.2415810
  57.0863867   1.1675385  45.5181885  29.6598649  33.6418748  56.5586948
  29.6055651  32.7075934  56.3576937  29.3911171  34.0769601  55.7495546
  32.4676275   7.5862432   1.8552049  32.0308280   8.4281814   1.9839579
  32.6909590   7.5721300   0.9245299  81.9734573  81.4736748  15.6361163
  82.5067043  81.7682362  16.3744342  81.4144897  80.7885170  16.0026586
  74.5970249  76.7406845  19.8619676  74.4996977  77.6929188  19.8644280
  74.3685913  76.4788818  18.9700532  13.7334514  51.1696672   5.4150939
  14.5885074  51.4868450   5.1243889  13.8073480  51.1212015   6.3682055
  57.3616076  55.4757929  69.2851400  56.6626930  55.7172823  68.6773300
  58.1467772  55.4264784  68.7398815  72.5153875  13.9870667  67.9538202
  72.9560947  14.4418991  68.6715555  73.0585384  14.1674662  67.1865702
  52.1997833  62.2834349  33.6282301  52.3805285  62.5289774  32.7208853
  51.2816763  62.0126963  33.6247468  67.7877617  38.8057208  51.3426638
  67.8616810  39.7570944  51.4178801  67.5662613  38.5120869  52.2263765
  35.9510994  12.2448611  55.6461096  35.3370333  12.9769981  55.7020426
  35.7025290  11.7844760  54.8445511  38.9696121  43.4348345  60.8471155
  38.9995432  44.3428516  60.5457258  39.8226833  43.0740547  60.6055784
  10.2804422  11.6182506   4.3111104   9.8957741  10.7527936   4.4498360
  10.4807615  11.9352818   5.1917893  26.3559866  31.5708876  39.8447490
  26.9823694  32.1165442  39.3692136  26.8902612  30.8822656  40.2404499
  36.7901039  12.5853610  64.0222263  36.5473056  13.4203887  64.4222355
  37.6695609  12.4069524  64.3553257  35.6811476  27.4542260  64.8747396
  35.1472664  28.0752659  64.3792486  35.8084798  27.8735042  65.7257509
  24.1467452  38.3641934  63.6350250  24.6302342  38.6378241  62.8555393
  24.7134352  37.7158475  64.0530443  43.2248211   1.1192459  36.6879559
  43.6951733   1.9493870  36.7645645  42.3170853   1.3379385  36.8987226
  61.5025139  27.2894192  66.4472437  62.3743534  26.9532299  66.2396240
  60.9027386  26.6230345  66.1119366  71.1846972  49.7681713  32.4862361
  71.7989254  49.9207449  33.2043433  71.6799307  49.2472839  31.8540549
  46.4752722  25.5484605  63.0602646  46.4105272  25.7944107  62.1374702
  47.2951174  25.0580955  63.1204891  86.2159548   2.9206611  70.3677587
  86.1985431   2.4497558  71.2009320  85.3142939   2.8775121  70.0493599
  62.9217625  65.6106615   1.6822028  62.2564173  65.4663515   1.0093562
  63.4824419  64.8363209   1.6345879  42.9040766  28.4287524  23.9586830
  42.9507923  27.4865103  23.7967324  42.6090193  28.8003254  23.1273532
  76.1899662  66.0597277  45.3409290  76.7875338  65.4995012  44.8456621
  75.5487490  66.3560581  44.6949720  80.5382633  49.9769831  23.5284162
  80.6962967  50.1926756  24.4475126  79.9440432  50.6613398  23.2205462
  79.0966415  13.1988847  66.1424685  78.2698917  12.7192342  66.0909700
  78.8366413  14.1172862  66.2143755  47.9258156  44.2568111  69.7667837
  48.7142372  44.7978830  69.7235870  48.0421686  43.6081362  69.0725803
   8.8441014  21.6474986  61.4874411   9.5740366  21.2098908  61.9255352
   8.2722855  20.9340358  61.2041950  57.5284576  69.2323256  52.0764303
  57.5203562  68.7128115  52.8803444  57.0413923  68.7034321  51.4445543
  71.0132313  12.2654295  11.9730330  70.1249886  12.0911765  12.2842991
  71.1276817  11.6719139  11.2308252  18.0158639  64.4454050   6.5189856
  18.2416904  64.8197603   5.6674606  18.5049999  63.6234808   6.5566015
  18.6770678  49.3102264  67.4209642  18.0672014  49.9388313  67.0347643
  18.3736169  48.4583426  67.1072102  55.6548882  50.3112030   6.3771474
  55.9929323  51.1209583   5.9947163  54.7077179  50.3629732   6.2490100
  68.4951782  34.5381498  67.3927164  67.7834129  34.1806579  67.9235840
  69.1956615  34.7165775  68.0201912  23.5019898  73.7469053   7.2406590
  23.7459135  72.9597282   7.7275729  24.2771530  73.9559507   6.7194521
  59.2024565  49.9083138  57.0652723  60.0420046  50.2887630  57.3234415
  59.0137959  50.3005409  56.2127495  21.5959454  31.0677147  65.2550459
  22.3714852  31.2864709  65.7716799  21.0528922  30.5471230  65.8469152
  38.8507009  14.9478912  59.6199656  37.9831600  14.5697105  59.4764900
  39.1528368  14.5510614  60.4369545  61.5195465  31.9232655  63.4219790
  61.1861134  32.1583676  64.2878819  62.4493313  31.7452741  63.5635710
  30.0624180  76.1382294   3.8040012  30.8136964  76.5808582   3.4091708
  30.1179338  76.3560104   4.7344422  42.5328922  39.3477225  67.7149200
  41.9582319  39.5512581  68.4528732  43.2771301  39.9403667  67.8203440
   3.5917217  46.0062790  62.8821182   3.0558151  45.2272511  62.7332735
   3.0788714  46.7242670  62.5110292   7.2001863  57.4730635  25.8381820
   7.8277874  58.1473541  26.0983253   7.0784026  57.6089287  24.8985338
  15.8564317   4.8957142  23.3178234  16.3230050   4.0720829  23.4598565
  16.3536584   5.3369755  22.6291370  37.3073554  15.8683372   1.8340774
  37.1333170  16.2572658   2.6912105  37.4762201  16.6165102   1.2614045
  64.4681263  79.7569609   4.6875149  64.4349813  79.0449715   5.3264254
  65.0380278  80.4128170   5.0891268   1.1957750  80.5461979  17.4822593
   0.8014723  81.2533951  16.9717479   2.1175940  80.5498695  17.2244453
  84.4833469  34.0038705  68.9586306  83.8069344  33.6662292  69.5457411
  84.3457222  34.9511170  68.9543438  56.0151148  56.1974049  67.0446205
  56.1610603  56.7712069  66.2925005  55.9335566  55.3221226  66.6658497
  81.2950516  60.9404230   3.2878220  81.1093235  61.1196470   2.3660767
  80.5763245  61.3579130   3.7625468  65.2117205  75.5652761  70.7398558
  65.1217604  75.1703787  69.8725653  65.2199507  76.5079832  70.5741072
   9.7425383  20.3243804  27.7174664   9.2946160  19.5972013  28.1496787
  10.6687403  20.0840640  27.7425742  43.1800604  10.4840243  25.9252739
  43.1697035  10.7182741  24.9972391  42.4850416   9.8320746  26.0155058
  77.0731401  81.7451572  21.8607616  77.3351431  80.9282684  21.4361691
  76.7129183  81.4717770  22.7044034   9.8707163  72.4027300  17.7629507
   9.4865859  71.9446993  18.5105348  10.7769740  72.5678253  18.0230927
  49.2341232  55.4885197  62.6323462  49.6082020  55.5433226  61.7529774
  48.7880564  54.6418047  62.6505375  20.7012320  30.0592613  15.8891511
  20.2470350  30.5600953  16.5667236  21.5080404  29.7630835  16.3105440
  35.8656311   8.1063139  35.0030780  36.3537669   7.7002555  35.7193685
  36.5183496   8.6239374  34.5316362  69.5083427  37.6000500  60.3682041
  70.0740767  36.8679166  60.6134653  69.1375542  37.3437905  59.5237637
  73.7865305  67.9953909  70.3532076  73.7935114  67.7750015  69.4217491
  74.5342636  67.5213623  70.7171011  50.3971815  13.1334543  63.1147337
  51.2341309  13.3520377  62.7048969  50.1448584  13.9291286  63.5832119
  49.8686504  49.1927576  65.1041794  50.3339767  49.4663858  65.8946419
  50.4838610  49.3666601  64.3917847  76.8626738  61.3469076  49.7947311
  76.8819237  60.4079866  49.6095562  76.1170149  61.6749239  49.2921019
  75.4244900  74.7533369  58.2165384  75.8810234  74.5805550  59.0399170
  74.6312189  74.2199469  58.2660103  73.7702084  49.5114994  57.8229523
  73.4998894  50.3980446  58.0621147  72.9493284  49.0453053  57.6646805
   5.5951685  52.4002695  54.8331928   6.2098372  53.0826998  54.5635557
   5.4269099  52.5812531  55.7579470  74.7376728  47.7207327  55.8716726
  75.5251217  47.4547005  56.3464212  74.3999720  48.4669304  56.3670301
   2.9013672  65.5331469   1.0020318   2.8465053  64.5822859   0.9067339
   3.3619064  65.8264780   0.2158429  72.1086931   6.5803671  64.0570593
  72.3896360   6.3525015  63.1708431  72.9126692   6.8493432  64.5014715
  71.8162155  19.2880464  45.9538126  72.0939159  18.8225031  45.1648951
  70.8607197  19.3035781  45.8989143  51.6687393  11.3567638  13.5237479
  51.2458897  10.8204281  14.1944003  52.4165249  10.8336210  13.2350135
  60.9332323  54.6511555  62.4337626  61.1619425  54.1069221  61.6802835
  60.7347775  54.0250206  63.1300449  76.6622543  46.0993433  68.9154482
  77.1407461  46.0621786  68.0872583  76.4581537  45.1857710  69.1153431
  61.4560032   7.4525404  53.8024235  60.9917450   6.9371897  53.1427956
  61.0531282   7.1978509  54.6325159  64.6399736  64.9548626  46.2345505
  64.0719652  64.9818897  45.4645681  65.5204010  64.8349285  45.8786058
  18.6546147  76.7954397  26.8700647  18.3688700  77.2370195  26.0703206
  17.9909039  76.1227608  27.0224500  63.8493395  41.7343426  16.2492168
  63.1378460  41.3425684  15.7427287  63.4335041  42.0256805  17.0606554
  30.3124237   7.9386771  11.5949297  30.8210588   7.8350222  12.3991549
  30.8735943   8.4616166  11.0223448  27.1747518  74.9100161  14.5188928
  27.7036190  75.6394577  14.1957092  27.7787328  74.1677666  14.5413494
  14.7277355   2.3244587  14.7256482  13.8124681   2.0914224  14.8812532
  14.6857274   3.0960053  14.1606855  58.9692831  55.9784794  65.1790476
  59.0344524  56.1221075  64.2349291  59.4359255  56.7188740  65.5667257
   5.3041607   8.1880808  37.6294565   5.3021580   8.3888853  38.5653567
   5.2605003   7.2327173  37.5893807  28.7116814  20.0930572  21.3081074
  29.2515230  19.3611383  21.6066027  29.2612767  20.5528212  20.6734467
  37.8941870   8.5380256   9.1519785  37.0652938   8.0593258   9.1483337
  37.7173400   9.3270689   8.6397600  73.8157606  51.3346243  44.0218782
  74.6710205  51.0548353  44.3481874  73.3083677  50.5256796  43.9555597
  66.3470411  62.6414108  35.2563357  66.9162130  62.1762133  35.8694124
  66.1537457  63.4716225  35.6917953  69.2029905  33.0183387  39.0282369
  69.4588804  32.3855996  39.6993494  68.3790541  33.3862305  39.3476391
  72.5237370  51.0763073  61.3975668  71.7539597  50.6662703  61.0031843
  73.0321121  51.3973856  60.6527853  59.0801144  36.5666914  67.3688412
  58.7912941  35.9632277  66.6842604  59.6959066  36.0558414  67.8942585
   5.1521713  71.9233179  69.5849276   6.0240871  72.3114347  69.5116997
   4.6627840  72.5356865  70.1342344  43.8362694  66.5036917  63.2751369
  43.6760378  66.9562292  62.4470234  44.4149017  65.7773495  63.0430984
  54.9367094  73.0187368  42.4271154  55.5223322  72.6898193  43.1090927
  54.1202831  73.2149506  42.8866577  56.5214300  49.5519543   2.6851794
  56.0406160  49.6558285   1.8640453  56.3837337  48.6366892   2.9292259
  26.3742590  12.3555112  58.6579895  25.9233189  12.2509241  59.4958115
  27.1889496  11.8637729  58.7614584  26.3023663   9.9810725  64.2034769
  25.4639244  10.3272629  64.5090914  26.1021352   9.5808506  63.3573341
  66.5680170  48.2413197  46.4616966  66.5437555  49.1401720  46.7898750
  65.8069181  48.1763220  45.8848619  49.3687439  39.0589976  10.4542971
  49.7431183  38.5930085   9.7066802  49.5494223  38.4925842  11.2044728
  58.5342026  59.7836161  55.7085180  59.0432692  60.0943279  56.4572096
  59.0075779  59.0104628  55.4012966  55.4095364  19.3286049  34.5750356
  55.4675674  18.5714078  35.1577163  54.4732904  19.5215714  34.5255899
   7.9826397  74.2202568   4.4510972   7.8408670  75.0744772   4.8590702
   7.1024811  73.9004278   4.2529574  37.6654124   1.2499996   7.7895743
  37.7308893   1.2932660   6.8355966  37.9498076   2.1136793   8.0885863
  57.9597859  45.4030822  70.5687203  58.8362460  45.7561510  70.7216641
  58.0768732  44.7698789  69.8605000  16.4355063   9.6334720  39.7810364
  17.1226120   9.6764416  40.4460716  16.0863698   8.7452430  39.8544145
  29.3765712   7.3769379  45.6116915  30.3144383   7.1892071  45.6489849
  29.2464781   7.7774906  44.7521162  62.6166868  36.6374373  15.9379375
  62.8486347  36.8025970  15.0240695  62.5316048  37.5088763  16.3247037
  65.6909513  65.1925707  61.1023712  65.7020473  64.3973637  60.5696869
  65.9893703  65.8822203  60.5094433  25.0232840  44.7525215  45.8600473
  24.8181844  44.3798208  45.0025749  25.7426858  45.3608704  45.6909227
  74.2496014  29.7364450  32.7070522  74.0499258  30.1959848  33.5226417
  74.2339659  30.4198790  32.0370483  77.7324247  17.7313006  59.1906404
  78.1083632  18.6001396  59.3321419  76.9168520  17.8973162  58.7178707
  48.3809710  19.6490443   1.9018716  48.4911919  20.4278135   1.3563426
  47.4402046  19.6081448   2.0736687  23.6201334   8.1035066   9.4629127
  24.3978882   7.5867367   9.2524958  23.8676524   8.6027837  10.2411723
  53.6503744  75.3782892  56.3647556  53.0768347  76.0035324  55.9216404
  54.3625307  75.9132767  56.7152548  27.7087831  71.8056917  46.0713148
  27.1114469  72.3382664  45.5461645  28.2499194  72.4424696  46.5381384
   4.2149949  61.9681263  44.0731001   5.1090163  62.2578478  43.8913822
   4.2235455  61.0303164  43.8816118  15.5351520  79.3049717  10.5250049
  15.4853594  79.5631456  11.4453840  14.9330389  78.5645533  10.4510283
  32.1125364   7.4862844  26.1822343  31.3261914   8.0008835  26.0003495
  31.7931271   6.5902162  26.2884021  57.7645779  67.6784897  54.2713118
  57.7155352  68.1184483  55.1199961  58.0729914  66.7958832  54.4765377
   1.2210597  56.7705011  52.8839064   1.8039401  56.0897398  53.2201290
   0.3728575  56.5785456  53.2838249  49.7402000   8.6420423  50.8035135
  50.6323385   8.3027130  50.7315493  49.7445965   9.4410133  50.2763891
  22.5972152  64.9437428   5.7097065  22.4124956  64.6775198   6.6103917
  21.7767143  64.7898149   5.2413934  53.7394714  76.6144133  29.8636127
  53.3706951  76.3041210  30.6906271  53.8003063  77.5637674  29.9697185
   5.3668386  26.9445515  60.3420115   5.1787615  27.8406405  60.0629330
   4.8120087  26.8116212  61.1105967  41.7919636  56.5064669  15.3761220
  41.1772823  57.1409178  15.0075185  42.2020531  56.9675589  16.1078703
  18.9029586   1.6795155  43.5258150  19.2258191   1.4276797  42.6606178
  19.5725715   2.2715683  43.8683414  32.6854014  11.9837201  10.9622157
  31.8422389  12.2972059  10.6350541  33.3279324  12.5811195  10.5794621
  12.6437068  10.5216920   7.0356256  12.0122147  11.2229383   6.8753010
  12.9851103  10.7024324   7.9114157  59.9789381  11.8017817  49.8792839
  59.8494196  12.6888049  50.2149105  60.5360985  11.9159913  49.1093731
  53.2900763  15.9758401   8.9411062  53.8160181  15.3331733   8.4650874
  52.6631784  15.4509115   9.4387788  44.9164009  43.9995718  64.8877716
  44.5241690  43.2981586  64.3677664  45.5732107  43.5592508  65.4271698
  57.8299141  42.7032614  56.8661356  58.0009460  43.6450577  56.8679190
  58.2356501  42.3876762  56.0586596  31.2601590  32.2611213   4.3522844
  31.3845921  31.5304494   3.7465882  31.1785245  33.0294061   3.7872136
  25.9012365  68.9739799   3.5939384  26.5342021  69.5797539   3.2084239
  26.3154936  68.1143999   3.5180864  79.0019560  42.6455355  33.8337255
  79.3433142  42.8104973  32.9548097  79.7434664  42.8159523  34.4145465
  66.9078207  44.8966455  15.8168280  66.4309072  44.7498178  14.9999869
  66.3635397  44.4865370  16.4889908  41.2908697  14.8939681  14.6042788
  41.8910694  15.6395042  14.5913434  41.8571758  14.1327453  14.7310352
  29.7655964  37.7414966  10.1841915  30.6649232  37.7336788  10.5118811
  29.3560028  36.9776773  10.5904484  16.4363348  10.4592228   5.6082880
  16.3575327   9.5223260   5.7878584  16.8690395  10.5041111   4.7556552
  74.5286036  63.4216738  17.1118295  74.4999361  62.7873611  17.8281140
  74.7769547  64.2454815  17.5312257  21.9844842  22.6580858   2.7036345
  22.0752096  21.7054868   2.7271828  22.3476601  22.9123735   1.8552995
  71.0345936  64.0862226  29.3516159  71.6991806  64.7594404  29.4976687
  70.5130434  64.4190025  28.6212182  79.2651749  67.4653625  58.2934713
  78.4840727  67.9891634  58.1152916  79.6896935  67.3706722  57.4408007
  57.4938917  22.9706907  11.3246858  56.9400311  22.2418284  11.6043758
  57.3296928  23.6578393  11.9705176  37.1826220  13.7808573  19.0563488
  37.5060511  13.9654851  19.9381304  37.6489210  14.4007564  18.4955239
  79.2843914  10.8213270  69.7806597  79.9050522  11.5429997  69.8816538
  78.4338474  11.2053454  69.9935770  72.7484846  69.9224854  48.3404541
  72.7750969  69.9507713  49.2968655  73.3741999  69.2379427  48.1035757
  16.1882389  24.8639393  18.9637244  15.4489589  24.4792104  19.4345558
  15.9013820  25.7523394  18.7523198  54.3709421  28.7947202  51.3391733
  54.5138073  29.1723204  52.2070694  54.7410583  27.9138899  51.3973236
  41.8491411  29.7583580  11.6761267  41.5851831  30.5552673  11.2162411
  41.1578798  29.1268611  11.4771187  32.5641751  18.9110363  24.1098785
  31.9168544  18.4753418  23.5554600  33.4087920  18.6420763  23.7486124
  44.5437479  28.0464721  66.9118309  44.4568157  27.6170063  66.0608101
  44.4613838  28.9802957  66.7183876  25.2443504   5.8388644   7.3827153
  24.4531012   5.5034512   6.9612271  25.4460168   6.6445696   6.9068980
  74.5715046  54.2581654  66.2883186  74.7204494  53.4444666  66.7699242
  73.8158751  54.6569967  66.7198229  62.9329443  39.3213344  55.4550648
  62.2833586  39.2707253  56.1562824  63.5554218  39.9848080  55.7526493
  61.1447001  27.8854012  35.5274653  60.7706451  27.0204711  35.6954241
  61.5818930  28.1203270  36.3459420  58.5138083  43.1222391  66.2289190
  58.5462999  43.9944220  66.6219425  59.3896389  42.9903221  65.8659363
  47.6956654  10.5733669   6.8704295  46.7943239  10.3175664   6.6745031
  47.6427364  11.5098238   7.0614243   9.1218352  21.5395975  16.3149011
   9.4563878  21.1865878  17.1393347   8.8069546  22.4151754  16.5395057
  66.4802647  43.5374594  63.5155153  67.4192905  43.6858320  63.6270905
  66.3869286  43.2707071  62.6009846  85.4677391  36.7080784  44.2194986
  86.2679863  36.5938592  44.7321272  85.3077221  35.8482528  43.8304901
  51.5735626  64.7107840  51.3986731  52.1669722  63.9876270  51.6014957
  51.1815357  64.4706488  50.5591011  10.9891176  19.0683258  14.8319232
  11.1672783  18.1304193  14.7624862  11.8380010  19.4849980  14.6835530
  51.4900017  43.0200386  59.3001461  51.7381716  42.5203419  60.0779295
  52.3198223  43.2091904  58.8621330  21.6435409  19.8829508   7.5481451
  21.9109964  19.1603673   6.9801915  21.6988873  20.6589961   6.9905394
  11.6077363  62.0022535   4.2884544  11.4263606  61.9185495   5.2245784
  11.6516161  61.1001587   3.9713874  71.6459656  72.0251226  42.2164392
  71.5550327  72.1606445  41.2732553  72.5703335  71.8091106  42.3393583
  33.2054567  60.9446239   2.3051120  33.5174561  60.8408976   3.2040721
  32.3176122  61.2900543   2.3980820   2.5596395  45.8116341  14.3804681
   2.0092596  45.4218245  13.7012339   2.9028717  45.0635862  14.8691845
  56.3849306  40.7082033  26.6015768  56.9110775  39.9911785  26.2476397
  57.0209789  41.2876034  27.0210695  10.4571652  66.3776064   8.7083477
   9.5405746  66.5798092   8.5207093  10.4762840  65.4261732   8.8115013
  34.5224786   5.3223163  40.2063322  33.9134312   4.7836939  39.7011781
  33.9599490   5.8818644  40.7417774  36.2948322  65.8506441   1.1416887
  35.4652739  65.7244873   0.6810882  36.7938972  65.0546217   0.9586182
  75.7646894  60.4605293   7.1829695  76.5634251  59.9525976   7.3252851
  75.9585428  61.0024357   6.4181250  76.0464287  49.0100622  43.2871151
  75.6186676  48.2101822  42.9814291  75.9373522  49.6304512  42.5663853
  36.7259955  66.7520571  40.9805965  37.2275591  65.9480953  40.8452845
  36.1139870  66.7791986  40.2451086  60.2707624  35.4308486  63.0001688
  61.0507822  35.4396510  63.5549021  60.0986671  36.3539076  62.8142214
  59.4329739  42.2616577  69.7736740  60.0640297  42.9445314  69.5463228
  59.6726036  42.0005131  70.6628370  81.0754013   2.5437197  48.8668394
  80.4198742   2.4890018  49.5622015  80.6838608   3.1236368  48.2136726
  34.2942524  26.7373586  12.4013376  34.9634910  26.2796521  11.8925595
  33.4703517  26.5161943  11.9671643  65.4968119  39.3048215  57.9043150
  66.0490370  40.0116825  57.5702047  66.0450315  38.8566232  58.5483694
  31.3573599  14.2919946   1.2218060  31.9916797  14.8719585   1.6431290
  30.6207514  14.2589331   1.8321694   2.5277922  52.0427513  56.2157583
   2.1614680  51.8673944  57.0825291   3.2123151  52.6932859  56.3721704
  14.4910669  66.4473152  38.0576968  14.6702623  66.6707373  37.1443486
  14.8025763  67.2036505  38.5548401   0.4088910  32.8908038  13.2252312
   0.5139669  33.0590653  12.2888136  -0.1949755  32.1494126  13.2690799
  79.3288422  33.3506966   1.0282763  78.4636688  33.6166334   1.3397041
  79.4037580  33.7482476   0.1607665  81.4451599  24.1883349  20.3055239
  80.5105305  24.2151904  20.5104017  81.8764400  24.1488767  21.1591458
  35.9827900  72.1013212   4.7469997  36.7836404  72.2716904   4.2511755
  35.7606387  71.1938477   4.5387462  57.2452831  13.5979140  21.3329101
  57.9982281  13.1429994  21.7102146  56.7043781  13.8321292  22.0870948
  23.8933444  10.8499348  25.0774860  24.6641064  10.5854714  25.5797005
  24.2179084  11.5196919  24.4755602  56.2484074  47.3554611  53.2365942
  57.0765877  47.8353882  53.2322598  55.7540846  47.7241707  52.5045204
  18.6768019  11.0996485  31.0606623  19.3199718  10.5856729  30.5724072
  18.3626306  10.5052876  31.7420316  44.2768335  29.3671775  12.5227344
  43.3720827  29.3986392  12.2118235  44.4761276  28.4330702  12.5856400
  73.3793116  68.3540010  12.6498139  72.5440407  68.6849928  12.9799688
  73.3881855  67.4309921  12.9032075  60.5308867  31.5413547  68.4945726
  59.7166586  31.2857056  68.9280605  60.3323603  31.4854932  67.5598574
  71.3705826  43.7460947  61.6889048  71.7213774  44.0234089  60.8425760
  70.4709482  44.0729952  61.6940165  79.8767233   3.6702293  46.2743330
  80.7179546   3.7515405  45.8249378  79.5575809   2.8015316  46.0299063
  66.0974216  69.4407988   5.1510477  65.1793861  69.2764807   4.9355388
  66.3890934  70.0707722   4.4920412   9.0323645  60.9974909  18.9475119
   9.7996914  61.4215040  18.5632515   8.4407300  60.8574629  18.2081938
   8.2731450  71.9306374  46.6016102   8.1908226  71.9559622  47.5549269
   7.8095859  71.1343479  46.3422441  17.3109961  57.6272345  54.2118216
  17.9572368  58.2653332  54.5142031  17.1132958  57.1010303  54.9865866
  31.2790608  60.1519251  27.6662111  30.7967687  59.4222498  28.0550551
  31.0160518  60.9145403  28.1814575  62.1808386  49.7118044  50.3914833
  62.7423382  50.4099846  50.7283640  62.2502041  49.0135241  51.0424995
  65.7929707  29.1361499  59.7772646  66.4229345  29.7957110  60.0677013
  65.2014542  29.6107173  59.1932058   1.4148812  75.3640604   7.3582369
   1.4314720  76.3201618   7.4009317   0.9003568  75.0991535   8.1206810
  80.1023769  23.9262915  67.9954576  80.1255131  24.7690153  68.4487915
  79.1728830  23.7690330  67.8295135  31.2546778  70.6337738   5.4707444
  31.9800234  70.6344604   6.0953289  30.9384227  71.5372181   5.4699689
  49.4114113  62.5490427   3.6393872  49.2035627  63.4752035   3.5158712
  49.3146992  62.1636629   2.7685493   6.3286036  25.1557851  12.1439755
   5.9489840  25.9402704  11.7481160   5.7974917  25.0006771  12.9250610
  54.9632215  64.8798370  16.5141797  54.9490023  64.4997883  17.3925841
  54.5356703  65.7303762  16.6142523  34.2965961  80.8944035  21.4776111
  35.0986314  80.3937149  21.6268682  33.8996887  80.9750462  22.3449016
  24.6094942  32.5651360  61.9531345  23.8378859  32.6030183  61.3879681
  24.7208953  31.6338539  62.1442699  17.4136710  75.4450274  20.9919453
  18.0263221  74.7113705  20.9406352  17.1150708  75.4445648  21.9013786
  71.9650173  61.9614363  25.0944781  71.1194229  62.3174620  25.3673196
  71.8115139  61.0207891  25.0058937  60.8907843  41.3158751  56.4387178
  61.3107491  41.2618256  57.2971725  61.5778208  41.6392136  55.8559084
  11.4861798  61.7707777   7.3934364  12.0211017  61.5751743   8.1627411
  11.0557616  60.9418678   7.1839517  68.6397457  62.9862261  39.2269444
  67.9283285  63.2725382  39.7997832  68.4883928  63.4533453  38.4052849
  62.2217703  19.3409014  42.9144764  62.3306131  18.6536157  43.5717630
  61.6381741  18.9564848  42.2603607  20.6929302  49.7872353   2.0927885
  20.9304857  50.7001114   1.9301265  21.5229702  49.3124485   2.0498687
  25.9933853  15.0074959  24.2516112  25.6862664  15.8659172  24.5431995
  26.3954949  15.1738822  23.3990550  76.7410231  76.4139462  10.8795667
  77.0630360  77.0456028  11.5226424  76.5047646  76.9454145  10.1193321
  24.1600370  15.5330944   0.9780305  23.8560510  14.6712792   0.6932508
  25.0603366  15.5874693   0.6575082  55.6449747   4.6951017  63.9453506
  56.5265560   5.0664258  63.9794970  55.3476667   4.6998692  64.8551941
   1.5404865  45.3542852  39.3309736   2.2370243  44.7843552  39.0050244
   1.6475119  46.1685467  38.8392830   7.3440719   5.3886759  14.5417500
   8.2246310   5.3761780  14.1666615   6.7872721   5.7152170  13.8349414
  40.6189680   8.3917135   5.1569784  41.5401697   8.3281046   4.9048474
  40.6226063   8.2803452   6.1076707  48.8941956  64.3201160  61.5785933
  48.4469223  64.0263653  60.7849407  48.5118580  63.7911081  62.2787333
  31.0227013   2.9047170  10.3890646  30.4517579   3.5990238  10.0601399
  30.9797430   2.9903799  11.3414550  40.6843662  17.7084255  42.6869774
  40.9958601  18.3683515  43.3064127  41.0644674  16.8876469  43.0001545
  76.3447571  71.8777895  12.6672053  76.9065237  72.6293278  12.8565037
  75.6287098  71.9489813  13.2984304   7.3993558  24.0772724  31.4174986
   6.4865386  24.2269373  31.6636634   7.7582300  23.5546660  32.1346593
  81.7992210   3.5197368  41.9530201  81.8948936   3.5328990  41.0007048
  81.9649601   2.6093361  42.1978283  67.9851341  64.3501568  53.2413149
  67.8450584  64.5981550  52.3274755  68.9232969  64.1692781  53.2992983
  77.8023052  58.5497093  66.3936186  77.5284815  59.4071770  66.7191887
  77.1162987  57.9510927  66.6890621  35.1088357   8.9018643  62.8106880
  34.7466445   9.6116745  62.2803831  35.8075023   8.5321021  62.2708988
  24.7693348  68.9034462  29.3833899  25.2078009  68.7248564  30.2153063
  24.3921685  69.7762299  29.4939590  28.1947064  19.5556605   0.9948242
  27.6603174  20.2748466   0.6580292  28.9697099  19.9833369   1.3590956
  25.6877804  45.9851503  11.9044828  26.0989547  45.1762104  12.2090816
  25.7632351  46.5860319  12.6457536  38.5895491   5.1356262   4.7554395
  38.0118084   4.3939596   4.5754975  38.0358267   5.9063661   4.6306005
  27.4685860  61.4987516  18.7471366  28.1377387  61.1724186  19.3487763
  27.4248099  62.4383736  18.9244235  58.2445192  34.7499681  12.8165674
  59.1415596  35.0630140  12.7001810  57.8149939  34.9381948  11.9821155
  36.4453197  45.6747675  35.3124285  36.8364048  45.0099468  35.8792591
  35.5019975  45.5717039  35.4379368  76.6249418   7.2113359  46.8864775
  76.6502380   7.1231300  47.8392696  76.7666292   8.1447172  46.7285013
  37.1709013  13.3094013   0.8857702  36.6889548  12.9169655   1.6137508
  37.3796916  14.1940117   1.1859390  32.0520473  51.9378233  46.3667631
  32.8005195  51.3816547  46.1506701  31.6813397  51.5442467  47.1566391
  18.8653636  70.1640463  70.4456377  19.1090477  69.2545938  70.6181097
  18.2246852  70.1099873  69.7365236  15.9551322  58.0634928   4.1423765
  15.1867688  58.1909657   4.6987936  15.6120610  58.0951929   3.2493317
  80.6420612  73.4633827  65.0010443  80.7804966  73.7389994  64.0948963
  81.4942741  73.1311846  65.2831984  75.7727289  68.8808298  68.3017731
  75.1286650  68.8067102  67.5975609  75.8924294  67.9833555  68.6123180
  27.4617600   7.9595804  39.7294903  28.0569887   8.5865957  40.1403236
  26.8272591   8.5026813  39.2618561  52.4450207  43.3480883  10.8149803
  51.9919062  43.7826729  10.0924456  53.3746910  43.4569931  10.6147754
  69.1640520  69.3862677  57.8876448  68.3675194  68.9203405  57.6333237
  69.0578222  70.2623177  57.5168657  25.9355593   3.6301467  47.6133251
  26.7185211   3.8398966  48.1224489  25.2067447   3.8416556  48.1966972
   7.6387191  74.3447113   0.8395918   7.8542161  74.8840857   1.6004261
   7.3825783  73.4999323   1.2096950  10.4697108  38.4976721  28.3461928
  10.9911215  38.5603142  29.1464686   9.6160948  38.8571525  28.5877419
  17.2112453   0.4672502  58.9881086  16.2832284   0.7016938  58.9953232
  17.4974716   0.6498843  58.0931520  53.4242058  29.4130421   6.4936250
  53.7926912  28.8089347   7.1382207  53.4942389  30.2744079   6.9051820
  52.3378420  68.8693380  49.5213223  52.7305651  69.0347052  48.6641979
  52.8525877  68.1492853  49.8857260  65.2006435  57.1154642  49.0706587
  64.4577742  57.0678329  49.6724176  65.9594679  57.2540712  49.6374083
   0.9922393  17.0089912  63.7301064   1.1558188  17.3497653  64.6095037
   0.4268314  16.2492180  63.8689947   8.7478781  34.4456339  23.2809091
   9.2885232  34.8464799  22.6002765   9.3609434  34.2500019  23.9895058
  72.4494410  31.2659097  64.7877455  72.5167561  31.0835147  63.8504982
  71.7270279  31.8898225  64.8590565  53.2622194  17.7650058   0.9996560
  53.6678219  16.9048810   1.1087543  53.2976723  17.9287302   0.0572288
  46.4230442  19.4282663   5.5596763  45.9667969  18.7191033   6.0126215
  46.4396524  20.1455498   6.1932838  28.4476018  33.1946898  24.6791697
  28.6861706  33.2078004  23.7522697  29.0629101  33.7996769  25.0934386
  37.4834085  21.8325830  50.6094551  37.5805140  22.7718258  50.7663870
  37.9120922  21.6850257  49.7664309  49.0057564  25.7886338   3.9349246
  48.5827255  26.3864064   3.3185276  48.7220383  26.0931587   4.7968996
  44.1795158   9.9705064  62.1305895  43.9938259  10.0584602  61.1956978
  44.0453482   9.0408707  62.3150063  75.0420618  47.3332167   9.1847563
  74.5426989  47.5271416   8.3914995  75.2865076  46.4121437   9.0947121
  51.7780495  65.6078911  68.6391163  52.5798273  66.1162710  68.7613249
  51.1024904  66.2637711  68.4668684   8.2923114  80.5750275  27.4835396
   8.7858081  79.8049784  27.7658772   7.9719758  80.9655666  28.2966161
  41.4059687  18.6945033  40.3447247  41.1592865  18.4173238  41.2270832
  40.6066179  18.5900664  39.8286176   8.5842001   3.0952084  20.0118923
   8.8920343   3.9928544  19.8865855   8.0804157   2.9021966  19.2212081
  56.2090254  69.6156263  60.3481770  57.0744324  69.2762423  60.1198912
  56.3164711  69.9719334  61.2300682  67.8240252  74.4271755  55.4691792
  68.6216545  74.0899420  55.0613928  67.9733038  74.3236637  56.4089823
  33.1222129  48.0215311  23.9298224  33.8883376  47.5915813  24.3098640
  32.8696823  47.4581766  23.1983209  29.4313788  79.6855927  10.8492923
  30.2992010  79.6787262  11.2531114  29.3139625  78.7949848  10.5187440
  70.7978535  49.0534115  57.2970581  70.8612490  50.0034428  57.1988153
  69.8912239  48.8489151  57.0680714  52.3844862  70.4817629   5.4543811
  53.0779696  70.1140785   6.0022146  52.1165085  71.2794781   5.9105200
  70.4183960  59.7342968  59.9231386  70.9361267  59.5574236  59.1377115
  70.9546375  59.4024324  60.6432390  76.2481481   0.0013351  68.9672422
  75.6323320  -0.6148338  69.3638992  75.7749969   0.8331680  68.9468718
  82.8778934  54.8979473  25.4626966  83.4901428  54.2262411  25.1623797
  82.0178604  54.5761681  25.1924658  67.6744032  68.1780005  62.3049402
  68.2038021  67.8580427  63.0354166  67.7102995  67.4744415  61.6569090
  47.6943398  28.4060669  27.7844691  46.7802334  28.6577296  27.6529312
  47.7342224  27.4923372  27.5020862  59.7176504  33.8817644  58.1177950
  59.6920347  34.8003411  58.3857346  59.0348864  33.4607840  58.6401367
  26.7644620  34.8687768  13.1851649  27.5210738  34.4252992  12.8016269
  26.0171485  34.3236685  12.9389739  77.5222635  13.7584698  10.1950264
  77.5800753  14.1109526   9.3069690  77.0091867  12.9558587  10.1012194
  12.8237784  35.9866047  45.7164669  13.2333004  36.7119575  45.2448845
  12.7920961  36.2803531  46.6269302  58.2616663  80.3943539  13.4806168
  58.8717175  80.9592342  13.9549375  57.5525141  80.9789658  13.2131171
  40.7842398  39.5942879  13.4658849  40.8973646  40.2989674  12.8280282
  40.9072304  40.0180721  14.3153024  38.8267922  13.4384596  27.1715331
  38.8459039  12.5219321  27.4469304  38.8292360  13.4012520  26.2150598
  38.7473345  37.8450155  25.1290631  39.5716572  37.9962873  25.5914974
  38.6653638  38.5912991  24.5352864  62.5563478  71.0215378  47.6234198
  63.2128906  71.7098141  47.7304602  62.7606010  70.3868008  48.3101606
   7.2623491   2.3520808  60.9561443   7.5093853   1.4819050  61.2691927
   7.0386833   2.2205855  60.0347805  65.5987120  37.6003623  55.6050110
  65.5548763  36.7806149  56.0972738  65.4579830  38.2820988  56.2620211
  70.1680326  38.8247871  69.9903059  70.3734016  38.5851288  69.0866375
  70.4961586  39.7193718  70.0813246  23.5126972  29.9952769   5.1466161
  23.9673138  29.1664839   4.9960920  23.3044696  29.9880004   6.0808647
  26.0295153  16.0385013  14.9829078  25.7255840  16.7501521  14.4195151
  25.3596044  15.9686804  15.6630361  74.2005777  17.8782427   8.7136805
  73.4827137  17.2467959   8.6670566  74.4286394  17.9134524   9.6426481
  42.1951246   3.5946691  41.4051580  41.7327166   3.6346728  42.2423029
  41.6055918   3.1082416  40.8289051  55.6652403  65.1505089  43.5075617
  54.7615814  65.3758669  43.7285757  55.5857611  64.4732904  42.8357840
  75.6560898  54.4649601  61.6710663  75.2327013  54.0880489  62.4423742
  76.3239431  53.8240623  61.4272451  30.2297258   9.1274554  64.4229650
  30.1752257   8.5929430  63.6307812  30.3804088   8.4970725  65.1273394
  54.3521976  34.5141721   6.5992838  53.6710739  35.1867080   6.5989554
  55.1602173  34.9917102   6.7871583  43.7925100  16.5332484  35.5575204
  43.9271545  17.4635136  35.7383752  43.5552692  16.1564100  36.4048338
  13.4900868  77.8312159   4.7401932  13.9256370  77.9632092   5.5822784
  14.0365064  78.3026981   4.1114151  71.2063026  62.7164459   4.2167386
  71.2447548  63.5672188   3.7797725  70.8635712  62.9105377   5.0891471
  30.5640936  38.9728975  16.4808714  29.8343420  38.4066796  16.7320514
  30.3602505  39.2433572  15.5855894  50.5179548   4.9623656  22.5731730
  51.3084793   5.1783997  22.0785761  49.8666763   4.7521615  21.9039321
  42.3518133  25.9764385  14.9875009  42.8496742  26.0938740  14.1784430
  41.7622328  26.7299175  15.0174320  14.8283780  39.8443460  36.1093855
  13.9284527  39.7749400  36.4280534  15.3049994  39.1663027  36.5882587
  62.1057034  26.0665417  48.0277348  61.5150261  26.3163710  47.3171616
  62.8217602  26.6997886  47.9777813  63.5347176   3.1737313  61.7259073
  64.0167904   3.4554216  62.5033951  64.2066908   3.0690080  61.0523224
  46.3487530  34.0092731   3.6048409  46.0635519  33.5637784   2.8070778
  45.5814409  33.9909053   4.1767913   3.2356238  47.0061636  55.8147526
   3.1768972  47.9300833  55.5715370   3.6911121  46.5937662  55.0807953
  74.1109276  16.5646279  23.3984208  73.5215807  16.9141066  22.7300143
  74.5508909  17.3355865  23.7565947  62.2482061  76.8913174  54.9626207
  62.6733255  76.0768938  54.6938801  61.3170052  76.6734409  55.0029182
  62.2974873  80.9420681  12.7534986  62.8227949  80.4883480  13.4126043
  61.5277147  80.3854084  12.6359737  48.0779886  25.5377030  24.2889309
  47.8591061  26.0570335  23.5152268  47.2449732  25.4285288  24.7476244
  66.2657166  35.8345127  50.5515242  65.3916121  35.5824876  50.2537727
  66.1084223  36.3755465  51.3253260  25.1945949  54.5136404   4.4776350
  26.0666203  54.2061138   4.2301747  25.2499461  54.6556807   5.4226178
  74.1379309  60.6570530  60.5002689  73.6411142  60.0698662  61.0700226
  74.8772717  60.9426832  61.0369492  57.8580523  45.9606171  54.8102474
  57.7807331  45.8459187  55.7574034  56.9536781  46.0001278  54.4991589
  36.5974379  40.6353331  14.1463506  35.6862044  40.6692600  14.4374382
  36.8104243  39.7022080  14.1342402  75.0191355  75.4581594  63.1363058
  74.5622253  75.5125570  62.2969532  75.4441643  76.3103199  63.2333040
  36.9941926  74.7265339  61.8761921  37.0855165  75.0635338  60.9849453
  37.8281474  74.2918491  62.0545197  52.1411085  72.7025986  55.5749035
  52.7061892  72.0277405  55.9510517  52.7452898  73.3842468  55.2807093
   6.3438368  45.1023149  32.0120001   6.6509652  45.8552694  31.5070558
   6.4752156  44.3538857  31.4299130  32.8710532  73.8390732  49.0029287
  33.4979701  73.8711309  49.7255468  32.2186232  74.5042801  49.2221785
  51.1703300  80.5565166  63.2659149  51.7947578  79.8368788  63.3577967
  50.3351831  80.1268482  63.0811357  14.1900301   3.5673243   0.9867951
  13.5341859   4.0018278   1.5320544  13.8391829   3.6253348   0.0981034
   3.3801150  74.6707392  63.7598801   3.5492313  73.9137220  63.1990242
   3.9444813  75.3596449  63.4089756   9.1261554  45.3872681  52.2992516
   9.2654246  46.2471533  52.6960230   8.3385104  45.4942894  51.7659664
  70.9560823  75.8878899  66.1687660  70.9343576  75.9580898  65.2143908
  71.8880272  75.8688211  66.3863707  74.9122381  67.0549536  10.8421111
  74.3997574  66.2542534  10.7304358  74.2927456  67.6868963  11.2069511
  25.9279227  77.6712608   4.3583265  25.3645563  77.9133224   3.6233053
  25.7930303  78.3662844   5.0025171  23.2526159   9.3827498  55.3928423
  23.8969088   9.6680194  56.0407162  22.5202322   9.0520531  55.9129238
  12.5721633  72.9214525  18.3422041  13.2665801  72.2663307  18.2726765
  12.9058838  73.5580492  18.9743447   7.3470473  64.2293596  18.3014703
   7.1747547  63.5689974  18.9726400   8.1059796  64.7117901  18.6293685
   8.2958657  47.8346777  53.5738182   8.2377309  48.5932255  54.1547298
   7.8030407  47.1492100  54.0249157  75.6656218  25.5232620  37.3659086
  76.0341215  26.1725354  37.9649782  76.2272120  25.5655718  36.5919161
   3.7475726  12.6660025   6.0669130   3.1043804  13.1908953   6.5433812
   3.2225546  12.0947802   5.5062938  24.6089506  45.9556341  34.5087528
  23.8049769  46.4725018  34.4567084  24.8726082  46.0146523  35.4270291
  24.7495770  24.9753022  16.1665964  25.5524397  25.3770375  16.4986360
  24.1199923  25.6952429  16.1273944  23.4330320   3.4138936   8.7291789
  23.6935782   2.8698063   9.4723588  24.1127920   3.2634839   8.0722654
  36.1805558  14.3446600  11.4263189  35.4388428  14.6779394  10.9213233
  36.9063306  14.9252915  11.1975217  55.0665760  36.0077882  69.4617796
  54.6126366  35.2789974  69.8849058  54.3737888  36.6367316  69.2600107
   2.2961923  28.1039786  49.3965721   2.3119029  28.8678718  49.9731588
   1.4935847  27.6402068  49.6352530  65.7682800  22.3758173   8.8561249
  65.6652451  22.2516441   7.9126227  65.0294256  22.9303193   9.1068250
  66.4586401  32.7807736  24.4384098  66.3901377  32.3859167  23.5691404
  67.3237848  33.1902432  24.4479752  68.8118935  34.6780753   5.7271099
  68.3356285  34.2485309   5.0165510  68.6918640  35.6137133   5.5646026
  62.6860714  33.4214520  66.3319540  63.1528282  34.1294789  66.7758703
  63.2724094  32.6679897  66.4007282  78.6151600  47.7332973  50.0387001
  77.8215551  47.4700165  50.5046463  79.2553806  47.8989935  50.7307243
  75.4359770  64.7281313  58.4327507  74.6321201  64.7739935  58.9503813
  75.5146360  65.5952930  58.0351639  48.6440134  57.4128342  52.3875475
  48.9134550  56.5650320  52.0341825  47.7477789  57.2713232  52.6924658
  25.3752732  12.8434908   5.3969210  25.8241320  13.2236075   4.6417588
  25.9250951  13.0769956   6.1448550  65.9886360  12.9172266  68.5162592
  65.7857561  12.9187047  69.4517088  66.8785477  13.2658184  68.4636354
  48.0702829   3.7547240  21.6142464  48.0570555   2.9369581  22.1115541
  47.1715832   4.0803316  21.6647673  20.9809899  23.7725234   6.0529101
  20.4798794  24.5776558   5.9229743  21.4811182  23.9283442   6.8540490
  35.2195263  26.1530375   7.2081214  35.3767180  26.0488915   6.2696773
  34.7562599  26.9873762   7.2822315   7.5472158  39.9388456  38.1235504
   7.7392715  39.2261577  38.7329960   6.9163013  39.5646501  37.5086069
  62.9964638  48.7708473  57.8605652  63.1327057  48.7309551  58.8071823
  63.5763597  48.0966139  57.5065041  69.6783018  50.3899860  64.5553303
  69.7883034  49.6537924  63.9535475  69.9803209  50.0560570  65.4000235
  43.5882854  27.4568629   7.1688968  44.4562435  27.0970821   6.9860268
  42.9892206  26.9036818   6.6675615  65.5419922  23.5225511   2.7185386
  64.6726894  23.3735609   3.0904937  65.4468107  23.3029222   1.7917508
   3.2235131  71.2244558  65.3030920   3.7217644  70.4081488  65.2628565
   3.6535031  71.7339087  65.9899664  52.2542715  59.3328714  65.4324913
  52.6598263  58.7987328  66.1154652  51.3454676  59.0338469  65.4025984
  82.6996613  57.9046774  50.0355721  82.9046345  58.4916735  50.7633448
  83.4400558  57.2990179  50.0005245  10.3449309  57.4724293  69.0179110
   9.5166725  56.9930315  69.0378952  10.1778197  58.2151937  68.4377337
  84.1388130  68.8830471  67.5905561  84.7782230  69.0576744  66.8999815
  84.0513515  67.9299068  67.6005316  39.9559402  26.6904545  16.3902819
  40.3159094  27.4987841  16.0252380  40.0650167  26.7855620  17.3364782
   8.2629395   7.1649051   5.4093271   7.5628722   7.2062808   4.7578478
   8.8882148   7.8344339   5.1318491  44.1585493  34.2304325   7.7811855
  44.9896622  33.8250685   8.0284953  43.9962435  33.9198017   6.8904567
  59.9998617  71.7535830  54.5474863  60.0888872  71.0606670  55.2018404
  60.1503992  71.3136625  53.7107992  58.0493402  58.8906527  65.5601835
  57.3243093  58.4728909  65.0953817  57.8577375  58.7417746  66.4861155
  74.0386152  30.4604173  27.2312498  73.2098389  30.8291531  26.9256496
  74.4962835  30.2038288  26.4306664  58.1970835  54.7168255  48.6027336
  57.9615164  54.0580511  47.9494715  57.5406933  55.4053116  48.4960794
  51.7505884  14.3476355   6.5476125  51.1567354  14.6456933   7.2366172
  51.9679594  15.1414132   6.0588396  41.9761038  18.8916922  14.5771086
  42.0371723  19.0222216  13.6308181  41.1150122  19.2377973  14.8115528
  25.9604621  31.5385675  65.3625059  25.8559322  30.9855771  64.5882273
  25.0729251  31.8314219  65.5692625  31.3646317  18.5041022  42.1128035
  30.9920239  17.8158927  42.6639509  32.0897627  18.8573694  42.6281834
  66.0538530  59.4681454  63.4043360  65.8044291  59.0029907  64.2028666
  66.4708233  58.8011360  62.8589344  19.6525002  26.2747121   5.1407301
  18.8512182  26.7099714   5.4318100  20.0458765  26.8875861   4.5195445
  80.4534912  17.0424664  49.9317980  80.0840664  17.8857946  50.1936197
  80.7457352  17.1784544  49.0304995   3.8545588  49.9891710  23.6187291
   4.0311474  50.0850344  24.5546031   3.4915626  49.1076756  23.5325456
  14.1870558  12.0116055   0.3118176  13.4698105  12.6442492   0.3512176
  14.3619871  11.9057810  -0.6232933  42.7070761  33.2614994  65.6118011
  43.2684422  33.1927681  64.8395491  41.9623280  32.6922846  65.4179573
  68.9668465  54.1897154  54.6095705  69.3500948  54.3799114  55.4658270
  69.7075415  53.9073849  54.0730143  68.3852100   8.0605263   2.5070006
  68.4764004   7.1077299   2.4972658  68.6430502   8.3348143   1.6269347
  53.8254070  53.7175417  64.8224735  53.7944412  52.8804064  65.2855873
  54.7578001  53.9273405  64.7690010  64.8634100  72.5109434  48.2202005
  64.7469616  73.1989098  47.5649357  65.4011536  72.9165220  48.9003277
  42.0988846  41.2551308  24.7282338  42.8156090  41.3957071  24.1095448
  42.3679256  41.7254400  25.5173230  53.5039806  66.7257833  50.6954193
  54.1837406  66.4965534  51.3291550  52.8106880  66.0829258  50.8447695
  82.1667099  42.4632978  52.7015686  81.3113976  42.8076124  52.9587030
  82.4859524  43.0814505  52.0441532   5.2146178  32.8505039   5.0412589
   4.5142138  33.2472229   4.5233023   4.8038808  32.0940042   5.4598725
  36.9987249  63.4633636  58.5006714  37.5458860  64.1474915  58.1149101
  36.4882016  63.9153671  59.1724539  26.9876480   9.7458416  11.4017701
  26.6017509   8.9220679  11.1039245  27.8978658   9.7037673  11.1085689
  63.8008976  72.0671415  59.4411469  64.3334198  72.5776577  58.8312054
  64.1501904  72.2858953  60.3050756  51.8638659   9.1578180   9.2589897
  51.6961670   8.4594929   9.8918021  52.7158499   9.5121694   9.5135158
  64.1615534  43.8868189  53.8196087  64.5714092  44.0071154  52.9629993
  63.3913422  43.3466578  53.6428642  62.6978350  63.2265902  53.9155531
  62.4590111  64.1517019  53.9735413  62.7812433  62.9432297  54.8260355
   4.2716914  67.1477413  67.8552341   3.9199200  67.9630327  68.2127094
   5.1688826  67.3647356  67.6018715  40.9424973  10.3698456   7.0870161
  40.7485390   9.5788318   7.5899184  40.7208252  10.1402867   6.1845767
  55.9182644  60.2416945  51.0885954  55.7146788  60.5255365  50.1974058
  56.7549849  59.7836876  51.0088301  45.3478670  32.6496077  60.0476360
  44.5038080  32.2519207  59.8339939  45.1961899  33.5912776  59.9671030
  13.7601542  81.0126877   8.6635804  14.6633232  80.8790970   8.9511043
  13.4656978  81.7832184   9.1491795   5.5406404  43.1651783  69.0879774
   4.9779487  42.5578070  68.6076546   6.2192070  43.4111834  68.4592819
   4.8337913   4.1199028  11.6703904   5.7204795   4.4789687  11.6374218
   4.9609861   3.1739521  11.7427123  80.2162361  64.3753004  56.9699097
  79.5306110  63.8902712  56.5106773  79.7589827  64.8165846  57.6857424
  66.8410540  39.9214387   6.7302257  67.4028969  39.4997478   6.0800433
  66.1728525  40.3716326   6.2134379  14.5518851   5.9682941  46.3458681
  13.9950287   6.6981298  46.6169453  14.5355439   5.9970140  45.3892374
  82.5081730  50.1516962  29.4482946  82.0826149  50.6261206  28.7341142
  82.3386383  49.2291546  29.2574883  30.3975606  57.5181532  15.6224060
  30.8003235  56.9994164  14.9260366  29.5788574  57.8357697  15.2415156
  59.9239922  15.2799714  20.1212072  59.2891455  14.8673749  20.7068419
  59.4825077  16.0690498  19.8070788  52.2103214   3.6920869  15.1882434
  51.8040133   3.0230594  14.6372938  52.7223444   4.2248699  14.5797944
  17.5209045  37.4683142  19.4865465  17.1226776  38.1865478  19.9782670
  17.4723542  36.7172742  20.0779939  52.0576239  56.6824913  41.1467743
  52.3247004  56.7033291  40.2278233  51.1017084  56.7237568  41.1193752
  55.8483982  11.8208563  14.7343433  55.2367592  12.5409484  14.5807326
  56.7142868  12.2180045  14.6408224  83.1520653  64.3994570  19.7980130
  82.4586487  64.5964527  20.4277778  83.2446957  63.4474230  19.8337722
  53.6517668  52.4147749  58.9405918  53.4949064  51.9659948  58.1097984
  54.6006918  52.3740149  59.0594006  25.1067257  13.3617234  56.0180140
  24.7411180  14.2394972  55.9081316  25.6730986  13.4326339  56.7864084
  27.1441317  10.9836543   2.8584558  26.4874697  10.2878082   2.8872114
  27.2795749  11.1467326   1.9250259  39.3191624  28.8856602  24.7563982
  38.7713718  28.4512997  24.1025734  39.9427938  29.3994427  24.2432261
   8.2734525  66.2726784  62.0093250   8.7126720  66.8927383  62.5914288
   8.1990707  65.4704380  62.5261545  52.1666861  55.0128508  43.4207058
  52.2263622  55.5722857  42.6463032  52.8155279  54.3254137  43.2701445
  70.7200766  10.0766027  34.2171931  70.3538513  10.6572187  33.5501146
  70.2651405  10.3208125  35.0231886  48.9062119  60.1132393  52.3699522
  48.0780840  60.2452517  51.9084263  48.8293028  59.2402840  52.7549982
  65.5776691  15.1991868  43.2603741  65.6778431  16.1510742  43.2499123
  64.8454809  15.0419438  43.8565350  26.9736052  13.6152112  70.1250362
  27.0085883  14.5410395  69.8845148  27.6643968  13.5114956  70.7794666
  63.0821460  33.5341118  -0.0294073  63.7103271  32.8777693   0.2719776
  63.5150367  34.3722580   0.1328985  82.2767830  33.2759523  56.5022898
  82.6353645  34.1567063  56.6114664  82.5404453  33.0177879  55.6190777
  15.5772603  59.9870348  63.6117649  15.3503025  59.1486883  64.0141249
  16.2239742  60.3699255  64.2045403  29.2340612  26.8702912  10.5272889
  30.0070095  26.9556856   9.9691761  29.4179511  27.4336982  11.2789476
  83.9815331  63.1102610  44.6311092  84.4422913  62.6378012  43.9377785
  84.6762943  63.5360718  45.1333332  54.4542074  31.0088325  14.7484016
  54.6522713  30.3698254  15.4329979  54.6616554  31.8555093  15.1437938
  61.6837168  22.0340967  14.8881423  61.2261343  22.8179002  14.5839953
  62.5319958  22.0651674  14.4457769  59.9398041  30.5751538  23.8860679
  60.5144548  29.8112917  23.9362907  60.5299997  31.3076520  23.7090135
   6.9571584  14.2821670  59.7539902   6.7015487  13.9068103  60.5966091
   6.1703521  14.2144835  59.2130804  66.4454937  51.1882877  59.0487766
  65.6937313  50.9605646  58.5017586  67.0165443  50.4214954  59.0023136
  41.2555647  40.2568674  70.3561068  40.4418182  40.7556438  70.2834988
  41.0640526  39.5791411  71.0043716  68.6732483  74.7881174  68.8603258
  68.2930136  75.6558084  68.9973211  69.1151381  74.5872831  69.6853256
   7.2307175  16.7187595  68.2383680   6.4337903  16.2044096  68.3671427
   6.9381857  17.5003648  67.7695942  65.4278135  65.9243250  69.9487638
  64.7056818  66.2943888  69.4410086  65.0765705  65.8349657  70.8346939
  72.2953939  11.0467112  43.8351631  71.3607359  11.0388315  43.6287928
  72.4706650  10.1733875  44.1856146  38.1356645  35.1150751  26.3046670
  38.0265427  36.0547495  26.1585879  38.8700390  34.8689437  25.7422209
  20.1927590  47.9294825  54.8357487  20.3354383  46.9928551  54.6993589
  19.9477446  48.2626390  53.9724970   3.9583227  26.8095183  63.0342865
   3.2148975  26.2785673  62.7485514   3.5865423  27.6775336  63.1909990
   1.5545289  24.1331220  64.9223089   2.1213625  24.0212059  65.6854630
   0.6752168  24.2267704  65.2887392  30.6744146  57.0266628  48.1336212
  31.2885451  56.9881821  47.4004126  30.0362444  57.6922703  47.8768396
  47.8883886  63.6510658  37.2110724  48.0035925  64.1833448  37.9982448
  48.7787390  63.4227276  36.9439197  76.6660881  68.4206104  54.0768671
  77.5144339  68.0047512  53.9232206  76.1397791  68.1799316  53.3144379
  49.0790892  14.8227203   1.9067450  49.5101547  14.0318525   2.2306961
  49.5833302  15.0699294   1.1315928  84.1004753  67.3009348  34.6534181
  83.5299492  67.5505447  33.9264917  84.8441601  67.9003239  34.5909357
  27.4135971  15.7408524   4.9582943  27.1856999  15.1816976   4.2155689
  26.6276765  15.7454157   5.5046839  73.2751322  13.5474432  12.9800689
  72.9989624  13.8277864  12.1075034  72.5222635  13.0691648  13.3274364
  50.6343222  27.0505357   8.0334127  50.1393938  26.2611532   7.8139877
  50.8748531  27.4256420   7.1862566  11.2961268  65.9595442  30.0333595
  11.4809084  66.8864489  29.8819184  11.1084950  65.6074524  29.1632700
  58.5607529  31.2052345  62.8554010  59.1045475  31.3806152  63.6233568
  58.7937689  31.8952703  62.2342825  22.9885006  56.3338614  63.2940960
  22.4360180  56.7201567  62.6145554  23.1794763  55.4519129  62.9748440
  18.0938625  69.1863632  51.3949680  17.1646619  69.2277765  51.6210270
  18.2603383  69.9984074  50.9163237  18.0816376  38.7048554  12.1281779
  18.5592782  39.4635797  11.7928720  18.5763371  37.9501605  11.8088996
  18.0948091  56.4722061  39.4534254  17.3378849  56.0616922  39.0353680
  18.3248007  55.8786297  40.1682711  55.8816576  19.6778476  14.6972525
  56.4107847  20.4739547  14.7469532  55.4166698  19.7509551  13.8637805
  82.7192879  59.1640806  68.9755630  82.5688076  59.3218517  68.0435228
  83.3371067  59.8467159  69.2373466  68.2613897  45.7794285  10.3298974
  68.6995983  45.1814699   9.7243792  67.3308802  45.6889200  10.1244938
  34.4056177  57.6723576  39.4225979  33.5333109  57.4790192  39.7660136
  34.7045660  56.8438196  39.0479159  77.6662493  57.8625536  57.8697491
  78.4075356  57.2809410  58.0384398  77.9604769  58.7204790  58.1757259
  80.3485394  51.3991117  55.6376696  79.6541548  51.4545345  54.9811745
  81.1592770  51.4903975  55.1370621  79.0166521  76.9700432  32.6279283
  78.8892460  77.6075411  31.9253659  79.5629644  76.2883759  32.2366405
  20.5846429  39.8448062  59.2607450  21.4857674  39.5480084  59.3877077
  20.3728271  40.3182793  60.0652266  26.4585781   0.4839336  27.4407387
  26.8680286   0.8266924  26.6463184  25.6442356   0.9801145  27.5236917
  23.8259101  77.8737974  48.1522131  23.9395809  77.3971224  48.9744616
  24.7176552  78.0505514  47.8525829  12.0676291  67.4323225  46.9758558
  12.8203571  67.4272776  47.5671339  12.4451935  67.2996998  46.1063242
  78.8525152  76.9195366  68.7205935  79.7111368  76.5850592  68.9796829
  78.8180637  76.7831182  67.7737904  81.4289665  29.6555424   9.2544520
  80.8320713  30.2346492   8.7805492  82.2138023  29.6210718   8.7075746
  37.9678345  74.4400740  39.1489601  37.5285292  73.5900402  39.1228223
  38.8974214  74.2322636  39.0545201  17.4553001  59.9924374  69.9448633
  18.0889487  60.2809715  69.2880011  16.7742145  60.6648922  69.9322557
  40.4436588  72.2943401  39.2961645  39.9137378  71.7294312  38.7337661
  41.0824299  71.7036438  39.6952629  53.2200050  22.2430992  37.3192835
  52.2932625  22.4527788  37.2034812  53.6167049  22.4335694  36.4692330
  20.9159064  46.8976450  59.7540951  21.2930179  47.7434063  59.5117998
  19.9817801  47.0748043  59.8648024  36.0812449  74.7723103  45.6308079
  35.6660533  74.7473764  44.7687006  36.4054799  73.8819551  45.7663393
  35.3595853   4.5048061  33.1086707  34.4175124   4.6579203  33.0359602
  35.4327416   3.5960037  33.4001470  57.0622969  17.7153277   0.5967173
  56.7737579  18.4675300   1.1136012  57.0644522  16.9856572   1.2162404
  30.5542493  41.7982388  68.5875225  30.6133771  42.6527739  69.0147352
  29.7896791  41.8686104  68.0159378  56.9682693  73.8158226   1.7884576
  56.7502069  73.9329624   2.7130973  57.5855684  74.5217896   1.5966570
  26.5126204  77.6058578  58.3360624  26.0037565  78.3700848  58.0654192
  27.2230339  77.9667330  58.8664532  30.2489448  76.7486858  58.8909006
  29.5327449  77.3211908  59.1657352  30.9167480  76.8587160  59.5677805
   2.9858083  73.5232544  45.3770638   3.1067905  72.8596354  44.6979427
   2.4808046  73.0794191  46.0583925  46.0935640   2.5934017  40.9540844
  46.6096830   2.4104579  40.1689816  46.1114645   1.7741336  41.4487696
  26.0735607  19.2641115  66.2911654  26.8362689  19.0306973  65.7619905
  25.6060958  18.4380531  66.4150095  22.7627063  29.7369027   7.9375893
  22.5315309  30.1394987   8.7746727  22.5098252  28.8189054   8.0353826
  34.2643023  79.7576618  50.7683945  34.8467183  80.2648163  51.3339233
  34.3853140  80.1371956  49.8980284  21.1148405  64.6108341  56.2135744
  20.9207940  64.7388935  55.2850342  20.3669381  64.1162062  56.5485620
  43.8065958  23.9826775  38.9987874  43.1261683  24.4212890  38.4880328
  44.2785835  23.4483814  38.3600450  36.2998486  20.3577375  14.2313468
  36.3483429  20.6803846  15.1312232  36.0495782  19.4380784  14.3198025
  62.2461033  56.7885399  36.2639213  61.4565754  57.2026730  35.9155345
  61.9199276  56.0822535  36.8215990  14.7856092  31.3659716  55.2522850
  15.5064094  31.8981600  55.5891132  14.7383451  31.5877700  54.3223333
  24.6624470  20.5599642  68.7983274  25.0041413  19.8341501  68.2761478
  24.6054959  20.2095008  69.6872377  78.3860540  59.0410376  39.2528129
  78.7353516  58.3645630  38.6726356  78.0981779  59.7374773  38.6626196
  78.9748096  48.9279842  26.1203527  79.2256069  49.2652416  26.9803476
  79.5306158  48.1591225  25.9931993  16.2239468  79.5232964  13.5176957
  15.5930007  79.0295029  14.0414381  16.2589157  80.3844929  13.9340425
  34.8000002  79.0197277  25.7688904  34.1877270  78.9763451  26.5033770
  34.9308467  78.1069946  25.5119205  19.4776404  71.7465401  61.2709093
  20.0437522  72.0050955  61.9981670  19.1365528  70.8893108  61.5259457
  22.1297097  42.9618406  61.9488001  22.9916954  42.6177931  62.1829844
  21.5651441  42.1896696  61.9134617   6.4225495  41.1080360  14.1253805
   6.0040027  40.2635050  14.2921793   6.0440516  41.4035416  13.2973421
  29.8712611  75.2520800  36.4853358  29.5825505  74.3597174  36.6765618
  29.4199753  75.7937431  37.1327734  54.0894842  44.2390490   8.4587592
  54.8067999  44.7835875   8.7830466  54.3835640  43.9438295   7.5970203
  47.9930401  38.7076497  57.9279852  48.4963751  39.0635896  57.1957350
  47.6368284  39.4779634  58.3706617  49.1369820  10.8774102  18.7084532
  49.7877264  10.2377391  18.4193397  49.5152760  11.7255211  18.4764349
  26.0750508  53.7570858  52.3026085  26.1016512  54.1825962  51.4455938
  25.1980138  53.3771229  52.3542452  15.8858240  40.3313541  46.5621138
  15.5014563  39.9759221  47.3634672  15.4879701  41.1969757  46.4691305
   4.6724883  75.2477646  30.6495857   3.9760363  75.1814699  31.3028789
   5.4132688  74.7852421  31.0414410  79.2000103  56.8894005  37.9079819
  79.3364286  57.3379803  37.0734763  79.6011448  56.0289431  37.7857494
  37.3876715   7.6081413  31.5374160  37.5806236   8.1318808  30.7597923
  36.6829538   7.0216620  31.2623739  83.8958836  34.5612717  19.0228784
  83.9234829  35.2963018  18.4103429  84.7069073  34.0806937  18.8570166
  81.7106706  63.7805937   0.1479475  81.1526376  63.1857131   0.6488936
  81.6631156  63.4539769  -0.7505472  48.4929562  21.8559623  59.0226603
  48.1221533  21.6353631  59.8771048  47.9603434  22.5882244  58.7122583
  75.5402184  30.7040358  46.1822653  75.2832365  31.4996982  45.7163095
  75.0943851  29.9979281  45.7144213  80.6550503  13.0165851  44.4373560
  80.1460743  13.4776616  43.7705851  80.7521629  13.6520994  45.1465273
  19.7674453  80.0815105  69.7566652  18.9996159  80.2099705  70.3135920
  20.2544403  80.9025478  69.8270464  47.1456861  15.6777167  57.4511337
  47.4976397  14.8812056  57.0537233  46.4919186  15.3647411  58.0763245
  27.6488137   9.1301042  46.9544983  28.0064225   9.0019280  47.8330851
  28.2681131   8.6844707  46.3764715  38.5941529   1.1573296  43.3342075
  38.1096053   1.5861535  42.6288319  38.5615945   1.7802271  44.0602732
  39.1530633  74.7493362  34.7854066  38.8344502  75.3009748  34.0709734
  39.8208594  74.1955709  34.3809080  69.7237778  48.0995274  14.8090005
  69.3265676  48.8607931  15.2320004  69.2032290  47.9669857  14.0167308
  71.1953926  52.8267002  41.5237284  70.6622934  53.5923958  41.3098288
  71.9518471  53.1839085  41.9889212   2.3219216   6.9165701  35.6615806
   1.7810762   6.5280944  34.9739742   2.9727221   6.2441677  35.8629894
  22.2405648  70.4028749  51.6404390  23.1667829  70.6444168  51.6375923
  21.9319344  70.6474686  52.5128794  53.4488535   1.5555535  57.0942688
  54.3197489   1.9517703  57.1222401  52.8859901   2.2397098  56.7318535
  28.0992723  60.5822849  28.8036680  27.1555710  60.6956387  28.9168525
  28.3977866  61.4135075  28.4346271  19.4131243  11.1905861  53.7129593
  19.0613115  11.1854649  54.6031475  20.2271891  10.6908143  53.7742710
   3.7895095  39.5459366   6.2499166   3.8852137  40.4622078   6.5097684
   4.3995282  39.4389915   5.5200732  23.4193897  49.9406338  28.2030535
  23.3354354  49.5580053  27.3296809  22.9947495  50.7955265  28.1318402
  43.0193186  23.7555265  50.3113174  42.8285217  24.2433619  51.1124706
  43.5793734  24.3412304  49.8018885  44.1246557  80.5566788  46.3916445
  43.2132053  80.7781124  46.2006998  44.3718719  79.9426603  45.7002020
  44.3251085  25.3285193  54.5449734  44.2458868  24.8102546  55.3458214
  45.0493526  24.9232292  54.0680599  85.9792042  17.1202767  46.8994093
  85.7122326  16.3731837  47.4349546  86.1967564  17.8037643  47.5332451
  38.4423876  71.1533785  37.7472949  37.8204966  70.7147455  38.3278871
  37.9619741  71.9088268  37.4085689  53.5341454  63.7149048  39.1005850
  53.2685852  64.1999817  38.3192992  53.9958668  62.9482317  38.7610817
   1.2874842  78.8265276  52.8182650   0.5546965  78.2111835  52.8428793
   0.9005280  79.6477747  52.5148630   7.3414534  77.2100878  60.7026672
   8.1302422  77.6412964  61.0314560   6.9630945  76.7840719  61.4718151
  62.5290823  70.5802536   3.1397676  61.6117239  70.7007647   2.8944945
  62.8977919  71.4635324   3.1294453  18.6001408  69.6786213  62.6419401
  18.8385630  68.8429403  63.0432081  17.6764870  69.7960615  62.8639841
   3.4627759   4.0698460  57.4493074   3.6068130   4.7059590  58.1499100
   2.5905970   4.2767286  57.1135473  25.5538201  59.7508669  54.8626328
  24.6057630  59.6206045  54.8413181  25.8252597  59.6851158  53.9470863
  54.1595602  52.6585150   9.4010562  53.3151484  52.9886818   9.7079653
  54.6375084  53.4412575   9.1269928  79.9154472  79.4017029  24.1820955
  79.0751839  79.1006708  23.8363123  80.1255608  78.7782145  24.8773241
  51.7879295  28.2169795  56.6909218  51.2973022  28.9481425  57.0663118
  51.8880129  27.5988770  57.4149132   9.3000090  80.1339054  62.9081440
   9.5023406  80.9433270  62.4389505  10.1330209  79.8682451  63.2976913
  59.2779875  14.3115950  53.2506227  59.5396471  14.7437572  52.4376059
  60.1011038  14.1505003  53.7118864  16.7590141  28.9758945   0.4674866
  17.5069606  29.5573735   0.6041899  17.1495438  28.1162071   0.3104587
  15.0940979  64.5340633  17.5823224  15.7799864  64.9792004  17.0846856
  15.5518496  64.1492605  18.3297324  50.1267719  39.1650820  51.0670614
  50.6448317  38.6074972  50.4865885  50.5914879  39.1373277  51.9034243
  55.9089661   2.3850936  57.3787785  55.2555752   3.0491197  57.5987434
  56.7230463   2.8767809  57.2703791  30.5342960   5.5638498  39.8324275
  29.6022272   5.3799284  39.9492812  30.5642152   6.2110955  39.1278648
  63.0840540   3.1554839  68.4366655  63.9703035   2.8069252  68.3402252
  63.1507683   4.0640885  68.1430340  59.7643852  64.3954325   4.7550312
  59.6403074  64.4131565   5.7039899  60.6910849  64.1859436   4.6385190
  30.1771212  78.8494587  16.1656058  29.2869830  78.9228058  15.8213615
  30.0773978  78.3679676  16.9868577  65.5107212  76.6456604  50.6683636
  64.9573421  77.1302032  50.0558090  66.3672113  77.0680237  50.6029797
  27.8371453  20.0953627  46.9902992  28.7476897  20.0557756  46.6977644
  27.8556871  20.6726527  47.7536011  30.9785914   4.4173226  59.9512148
  31.8086290   4.8568571  59.7666121  31.0744309   4.0904301  60.8457470
  17.5958800  17.5426543  41.2830305  17.3111653  16.6426384  41.1244678
  17.0971501  17.8197467  42.0516109   1.9223315  70.9202385  36.6196847
   1.3033415  71.6455221  36.7036200   1.6757321  70.4883289  35.8018374
  55.0640345   0.8371621  49.3485117  54.7105503   1.5491033  49.8818207
  54.9203348   0.0501323  49.8740244  79.8225021  29.5565915  58.2978344
  79.3339109  29.9407935  59.0257740  79.3923187  29.8980999  57.5139046
  20.6230378  48.6113691  52.0504808  19.8347604  48.2327509  51.6612530
  21.2854290  47.9256868  51.9649935  47.3198843  58.2765484   4.3025404
  47.1638536  59.1789627   4.0240917  46.5187883  58.0259466   4.7626168
  56.4965630  37.6553226  66.4751005  57.4519634  37.6127434  66.5153742
  56.2007570  36.9983125  67.1052361   7.3696816  74.2170334  44.6631575
   7.7148634  73.5418844  45.2473307   6.6679972  74.6319580  45.1648617
  45.3451061  73.8705587   3.0564788  45.9566832  74.5793867   3.2558855
  45.0413036  73.5684443   3.9124370  45.3309536  31.0233450  47.6307726
  44.4204330  30.9019494  47.8999281  45.6863260  31.6480732  48.2629585
  17.2960424  33.9538074  23.9285183  17.2833598  33.2695341  24.5977283
  17.9742467  33.6747003  23.3133984  63.2340574  36.8782640  64.8706007
  64.0058517  37.2754979  65.2740526  62.4945259  37.2485304  65.3524971
  33.0405140  21.8497133  38.1488490  33.7870979  21.2959242  37.9204583
  32.6298022  21.4043689  38.8899398  36.3124251  80.6549263  52.3550367
  36.8725133  81.3341045  51.9791985  36.8748021  80.2008629  52.9825640
  25.2476549  67.7812624  17.3881757  24.7748852  68.1111431  16.6240430
  24.8174357  68.1985283  18.1345189  50.7280207  25.8520722  63.5216379
  49.8651171  25.6897545  63.1404734  50.6176567  26.6548872  64.0310860
   9.7809529  74.6693850  39.7331429  10.3908157  73.9551449  39.5483255
   9.8158115  74.7740984  40.6839609  24.0239263  78.2700682  67.6692247
  24.7339272  78.6812258  67.1761894  24.0092683  77.3649025  67.3582649
  26.8561482  69.9447775  40.9930468  27.5376511  70.6118250  40.9103489
  26.8609548  69.4916391  40.1499128  27.0525908   5.7581633  53.1911516
  26.3857579   5.0738353  53.1340599  26.5595770   6.5773761  53.1457663
  17.2059596  20.5051255  52.2436190  16.4028740  20.6906295  51.7569208
  17.3350334  19.5621002  52.1422577  76.7323303  26.9045281  66.8609142
  75.8756685  26.9228792  67.2875547  76.6333723  26.2687850  66.1522007
  18.6062956  41.9153070   7.6048672  17.7556193  41.5649509   7.8691208
  19.0196955  41.2006330   7.1205443   3.0991310  24.0001869  62.7680349
   3.5600555  23.1757736  62.9233456   2.5716126  24.1317606  63.5558462
   9.3207169  60.5779266  29.1628981   8.6480284  59.9077320  29.2835665
   9.4375032  60.9594440  30.0329757  55.8708668  11.2491584  46.5248728
  55.9001446  11.6010392  47.4145651  56.2292957  10.3652215  46.6049957
   2.4296236  25.3697991  20.4451680   2.8692335  26.1854982  20.6851816
   2.0742822  25.5370927  19.5722544  31.6490078  75.6397963  42.7735138
  31.3203239  76.5236139  42.9380417  31.3378882  75.1259661  43.5187721
  38.5299516  66.5519333  51.9762182  38.7311816  65.7767153  51.4520311
  37.5963044  66.7041492  51.8300486  57.4583769  10.9838498  66.8450689
  56.9593477  10.3504431  67.3608208  58.3024740  10.5582905  66.6946459
  18.8526642  50.3783178  15.8284473  19.4068456  49.6076965  15.7049096
  18.9935076  50.6308222  16.7409348  16.3669038  16.2142372   2.5035957
  15.9816313  16.9502604   2.0281300  15.6211352  15.6583714   2.7295923
  58.5470581  26.1675954  47.7294111  59.0274954  26.5199971  46.9802618
  57.9109812  26.8486953  47.9479027  34.6866107  13.4498560  27.0609188
  35.3734994  13.0636907  26.5175128  34.4671726  12.7647197  27.6923203
  10.5793178  81.7057323  56.6949034  10.1164973  81.0974312  56.1187172
  11.0270846  81.1433220  57.3268986  77.4073219  49.3174648   8.7492287
  76.5262556  49.0837812   9.0413618  77.3318624  50.2285862   8.4656960
  33.5364199  14.4168949  46.5114832  34.3792152  14.3630707  46.9620705
  32.9990458  14.9742186  47.0743799  63.1819439   1.1381013  51.0832024
  62.4266577   0.5547492  51.0091734  63.7069368   0.9501129  50.3052092
  51.1043024   3.8438657  36.3788795  51.2561464   3.4846091  37.2530127
  50.7679987   3.1051913  35.8714414  52.1835423  23.8425231  59.8460817
  52.1309805  22.9806972  59.4328976  52.9562616  24.2493367  59.4541168
  49.0156889  63.8929224  10.3369057  49.7493458  63.4364891   9.9250257
  49.0569353  63.6314392  11.2567735  82.8220749  31.1877394  40.2289343
  82.4166107  30.4073048  39.8511124  82.9405308  30.9721231  41.1539793
   3.7491387  78.3865929  22.0880580   3.7943518  79.0799379  22.7464342
   3.8493869  78.8427687  21.2525439  10.1090479  37.4330473  11.6802347
  10.7514417  37.9982543  11.2511623  10.0087416  37.8062344  12.5559652
  22.9457879  -0.0442244  59.2428446  22.7222586  -0.4168105  60.0957489
  23.0012417   0.8983039  59.4003153  55.4721069  62.1418476  70.4410648
  55.5631447  63.0836201  70.5860186  55.9944534  61.9684553  69.6579170
  61.8746853  52.5849676   2.5574234  61.9202137  53.3391142   3.1451464
  62.6848459  52.1028852   2.7231747  48.1900883  80.3431511  58.4264421
  47.9465199  80.7496738  57.5947905  48.0710030  81.0362530  59.0757895
  15.0940597  54.2533970  33.5603237  14.5017695  53.6526775  34.0126109
  15.6360483  54.6247625  34.2564321  76.2628269  55.6775379  27.8653431
  76.5642071  56.5685987  28.0425811  75.3208876  55.7054281  28.0332899
  78.7820578  27.6132822  63.6972857  78.0117989  27.0452809  63.7148762
  79.4194269  27.1699214  64.2571211  27.2352028  69.5095015  15.7984567
  26.6792107  69.9984550  16.4051104  28.1281638  69.7520781  16.0434234
  36.6197109   6.1344564  52.6193714  36.5963149   5.2177775  52.8939295
  37.4749708   6.4501131  52.9111290  12.1192670  39.9617505  52.3685408
  12.1060371  39.2911506  53.0514431  11.3789129  39.7422409  51.8029261
  47.5782442  15.5166733  30.3035522  48.1113577  15.9455132  29.6341372
  47.1012878  16.2319505  30.7244086  43.4008503  13.6483145  62.0400238
  42.7838326  13.5536909  62.7656746  44.1780186  13.1659007  62.3220110
  20.0230217  63.7729740   4.2130259  20.7640100  63.4727812   3.6866683
  19.7337973  62.9928732   4.6863362  43.8207722  33.0199838  41.1370277
  43.1632376  33.0173349  40.4414225  44.6055841  32.6573968  40.7261372
  74.9591780  49.9722624  13.4300387  74.2385435  50.2260208  12.8533888
  74.6016455  50.0610924  14.3135047  31.6587257  26.0540557  46.6486883
  32.3673677  26.6269851  46.9416285  31.2813139  25.7073474  47.4571323
  49.4342852  67.0556641  68.4375811  49.5597219  67.6059628  69.2106724
  48.6847639  66.5020943  68.6566830  18.8180470  11.3294768  22.4122763
  19.6937299  11.0788941  22.1179652  18.2261050  10.9059036  21.7906451
  68.2240105   3.2771182  43.3105803  68.9637375   3.8822815  43.2575083
  67.4525356   3.8432834  43.3332586  72.2672606   3.5262313  50.2390909
  71.3164711   3.6367139  50.2442122  72.5466919   3.8156092  51.1076593
  43.9077425   1.3727611  61.5557194  44.2841434   1.7437577  60.7576466
  44.4756651   0.6315725  61.7662859  85.3626347  53.2211161   0.3041709
  85.3302765  53.9580011   0.9142406  85.0743389  53.5889292  -0.5311900
   0.7403925  54.7137594  69.6555948  -0.1456029  54.9777842  69.4075346
   0.7173556  53.7569094  69.6436501   5.2420086  75.4097509  45.6399107
   4.4298631  75.0120783  45.3260517   5.0853813  75.5719328  46.5701771
   1.6112831  48.2315207  13.1509519   1.1797410  47.9342985  12.3499131
   2.1703416  47.4983120  13.4080303  71.9786596  44.4676161  59.1163349
  72.0418310  43.6025333  58.7115192  72.6404619  44.9919605  58.6654282
  52.0731974   3.5958967  31.6759014  52.0906496   2.6489657  31.8146443
  51.8439865   3.9591184  32.5313330  20.3651595  33.9351177  44.2808247
  20.1381207  33.7679338  45.1955557  20.6202745  33.0789876  43.9370394
  58.3196163  47.3306417  15.5919552  57.8626251  47.9834032  16.1223245
  58.5045576  47.7792740  14.7668767   0.3837619  52.2776699  38.3931994
   0.3525725  53.2031250  38.1507277   0.5598459  52.2823811  39.3340540
  -0.1060168  49.1899395  17.1977758   0.7698377  49.5739746  17.1572363
  -0.5233828  49.4584370  16.3792765  71.4687014  54.9728155  24.9360871
  70.6917763  55.4376078  25.2468657  71.4800453  54.1602850  25.4419470
  27.9448223  69.3780613  29.8322034  28.3370852  68.5404539  30.0787377
  27.3844075  69.6075058  30.5735016  57.3478985  24.9712396  31.8886948
  56.6552496  24.5311880  31.3959265  56.9023991  25.3385615  32.6521301
  36.8909025  24.1799045  35.8359551  36.5200210  24.8175287  35.2259469
  37.0310163  23.3950591  35.3062224  29.6084380   1.2365082  46.8718195
  29.5934868   1.6779834  46.0226393  30.3853154   0.6783441  46.8379354
  15.9256232   0.6717566   5.3383774  16.4248168   1.3989979   5.7100731
  16.0714746   0.7386985   4.3947256   3.3882064  52.9003239   5.3622705
   4.0165159  53.3465862   5.9299952   2.6224118  52.7572393   5.9184343
  82.8359509  77.7955866   6.2577790  83.4701252  78.1235743   5.6202209
  82.3020649  77.1719837   5.7655162  75.0709915   4.8745814  40.8493805
  74.1431856   4.8917919  40.6146240  75.3535223   3.9833802  40.6440258
  16.7366064  77.0898819  62.8657913  16.1146402  76.9220495  63.5737658
  16.1887085  77.3166609  62.1143866  67.9947186  46.7037630  17.6184344
  68.6186886  46.2876129  18.2131684  67.8657818  46.0625410  16.9195461
  33.9143991  30.3157425  32.9787230  33.3456063  30.9922910  33.3461380
  34.7669601  30.4733682  33.3843398  19.4759905  73.9999056  43.9365005
  19.3432140  74.9466324  43.9846468  19.7830367  73.8462496  43.0429983
  15.0526464  68.7395382  39.1956449  14.9565196  68.9745426  40.1185560
  15.3747523  69.5380402  38.7774587  20.3295207  22.0940351  33.1853867
  20.3674936  21.4875579  33.9249659  19.4739032  21.9332790  32.7875066
  12.0359015   6.3304144  69.8638391  12.8604257   6.3173431  69.3778133
  11.5724862   5.5459297  69.5704794  57.7848816   9.9394757  53.4073305
  58.5565901  10.4528940  53.6462831  57.8675938   9.8082173  52.4627876
  74.4567585  30.2195096  54.4616795  73.9927006  30.5547595  53.6945486
  73.8017893  30.2262115  55.1596737  39.1357970  71.8220425  48.8395262
  38.3157277  71.5877199  48.4049988  38.9354038  71.7688704  49.7740030
  61.9930744  81.0501289  27.7980328  61.1250973  81.0461807  28.2015634
  61.8469572  80.7177830  26.9123530  14.8658109  20.3459334  31.8872809
  14.7187650  21.1240149  31.3495111  14.2505252  20.4377961  32.6147532
   2.6844826  58.2683086  21.3120103   2.5613618  58.0335665  22.2317767
   3.1597847  57.5268316  20.9371328  33.5214210  15.0559366  68.2047653
  34.0629125  14.2697048  68.1350613  32.9833102  15.0471008  67.4131870
  27.6547122  79.1848946  53.4543705  27.5689936  79.6574593  52.6263809
  26.9632196  78.5236597  53.4254503  40.2803898  52.5168037  40.1662111
  39.7795510  51.7741871  40.5037308  41.0814762  52.1264315  39.8167753
  24.1541576  62.0521355  56.9913673  24.1670561  61.2822390  56.4227533
  24.6098709  61.7714453  57.7849483  20.5286956  70.0010729  33.8522649
  20.0038481  70.7874250  34.0019798  20.4297137  69.4904661  34.6558285
  50.0785923   2.3889549  66.7723513  49.5729685   2.8919092  66.1339045
  50.3583241   3.0361468  67.4197483  29.6199322  17.0217502  48.2138300
  29.0200639  17.5973225  47.7393770  29.1539812  16.8030608  49.0208578
  29.8047376  59.3279123  46.5650082  29.0120316  58.9329147  46.2019253
  29.4896984  59.8896646  47.2731161  82.1257782  45.7151604   1.5876788
  82.3036003  46.0728741   2.4575356  82.5702667  46.3135386   0.9871768
  47.7375174   4.8179978  41.9809961  48.1563091   4.8435688  41.1206532
  47.0607042   4.1462260  41.8980551  62.2511482   4.7540021  63.9010191
  62.7339363   4.3875334  64.6418619  62.4023199   4.1349131  63.1868029
  34.3997955  63.1776476  56.5952587  35.2213573  63.5011768  56.9648552
  33.7245679  63.5045099  57.1897840  34.7800684  73.9432955  57.6373625
  35.1519704  74.7999859  57.8471184  35.5207229  73.3397913  57.6960230
  34.7323245  81.4916046  54.3235588  35.1545876  80.9879829  53.6276484
  35.4075497  82.1010627  54.6216536  68.0146694  42.1569729  28.1355023
  68.5719538  41.6275835  27.5650501  67.1574783  42.1465588  27.7096510
   1.5561476  72.0450306  49.1378880   1.9724084  72.0645142  49.9996185
   1.2215209  72.9331493  49.0134001  55.1773214  41.7402840   9.9500000
  54.9814320  42.6458693   9.7096342  56.1157656  41.6466713   9.7863191
  69.1570807  63.4676886  22.9727602  70.0606108  63.7811947  22.9329896
  69.0027475  63.2991123  23.9022732  15.0042748  17.8343117   9.7866035
  15.3580868  17.2472155   9.1184962  14.2964721  18.3023286   9.3436521
  70.6385708  57.1623373   8.6921275  69.7175598  57.4164963   8.7502050
  70.8842993  57.3573971   7.7878022  78.9427853  14.1698349   2.3569226
  79.5192051  13.7192547   2.9741329  78.2037497  13.5728753   2.2398737
  80.3710556  74.0509605  45.3786850  80.5537796  74.1305971  44.4424677
  80.5787468  74.9137211  45.7374859  27.7837992   2.7373561  64.8302937
  27.6742649   3.1187224  65.7013798  28.1899023   1.8856139  64.9910641
  31.4906311  12.1753883  46.4240694  32.3879194  12.5082529  46.4066076
  31.1497307  12.3596847  45.5488205  26.5306664  28.4741282  55.1685286
  26.6485286  29.2953730  54.6911430  25.5980539  28.4535432  55.3831005
  75.5094671  18.2642186  57.6799250  74.9898148  17.6688814  58.2200766
  75.1964903  18.1132758  56.7880201  67.8043699  21.1902070  53.9608383
  67.7863932  20.2367115  53.8786745  68.1134462  21.4982367  53.1088877
  33.8302183  15.4711235  58.2870340  33.7973022  14.5159173  58.3392906
  32.9838657  15.7590151  58.6291456  31.1865520  17.2665894  37.0370007
  30.9032393  16.3572669  36.9416070  30.8811188  17.5225723  37.9072976
  65.8796692  49.2530060   2.2559382  65.6722260  48.5678959   1.6204667
  65.6317425  48.8786173   3.1012774  14.1799223  35.4261708  60.9070587
  15.0689209  35.7500434  61.0520411  13.8381684  35.2628613  61.7861319
  45.5204296  74.3226147  69.0336609  45.8550167  74.8982811  69.7213268
  45.5527592  74.8550177  68.2388449  50.4961395  54.0895510   1.7403284
  50.0434637  53.2469988   1.7780389  49.7934055  54.7394514   1.7456479
  58.8599586  53.2181931  70.1211596  59.3707275  53.2954693  69.3153238
  59.0397072  54.0288639  70.5973291  53.5167837  36.6866541  63.5082579
  53.3988190  37.1300268  62.6681757  52.7518892  36.9426298  64.0236664
  81.8153191  36.5462446  38.9211917  80.9698677  36.5689635  38.4729242
  81.6615486  37.0070171  39.7459817   4.0547052  74.9197626  42.7158546
   3.8440964  74.8058748  41.7890835   4.3841329  74.0649652  42.9934120
  85.2159691  66.5147877   2.9164642  85.3589344  65.9030056   3.6386248
  86.0940647  66.7050743   2.5863615  64.3378353   0.5992988  39.9633098
  64.6147442   0.9225569  39.1059542  65.0405693   0.0089339  40.2350903
  74.3480015   9.8609972  70.3655672  74.7254038   8.9858425  70.4544687
  73.4106159   9.7068053  70.2482176  63.9428902  18.1095028  63.2394457
  63.2533884  18.7174368  62.9725409  64.2796516  17.7533627  62.4172640
  69.0296793  54.5776033  22.3268223  68.4072638  54.1908073  21.7110157
  69.4479322  53.8266850  22.7480340  63.5029697  10.2944648  70.0648928
  62.7200413   9.8030925  69.8162842  63.1662464  11.0743213  70.5061102
  64.9110508  15.1859844  48.5006475  65.8395052  15.0404453  48.3189154
  64.9036884  15.7369936  49.2833138  41.8966436  18.5157561  33.9362526
  42.3885202  17.7556920  34.2470479  42.0187187  18.5081935  32.9868984
  50.1533079  24.6723127  57.4842167  49.8349857  24.2628598  56.6796970
  51.0936546  24.7806692  57.3419714  74.7406864  52.8090429   7.4681091
  74.9716806  53.6758471   7.1341646  74.2072821  52.9852772   8.2431257
  16.2936950  16.2516451  43.4703827  15.5559182  16.8037903  43.7293291
  16.7547655  16.0685921  44.2890024  67.5521183  17.2252035  22.7360988
  66.5984726  17.1728182  22.7997303  67.7490950  18.1548953  22.8505874
  63.0818653   8.8274610  50.6370354  62.8442001   7.9116046  50.7817888
  62.8334618   8.9986676  49.7286224  34.6945262  11.3769746  65.1074886
  35.5235386  11.4367437  64.6327305  34.7753286  12.0194972  65.8123779
  28.8470864  68.6373091   2.1408790  29.6690321  68.7581778   1.6654557
  29.0971828  68.1662464   2.9357266  58.8597345  10.2794552  29.5352554
  58.5502720  10.5739188  28.6786604  59.7903872  10.5031729  29.5435858
  31.7594552  31.5367174  58.9134598  32.0718789  30.6808352  59.2068672
  31.1601162  31.8222022  59.6030426  19.9802923  68.2201672  53.2081032
  20.0938320  68.7959576  53.9642859  19.2363715  68.5915232  52.7338552
  77.5903988  18.5558379   4.8089090  77.1862984  18.4204793   5.6660044
  77.4296999  17.7389085   4.3366426  46.1999846  11.0399544  44.2390442
  46.6259909  10.1832211  44.2115068  46.8686104  11.6287780  44.5889807
  48.0400419   8.3746409  55.1250124  48.0666161   7.9479289  54.2685986
  48.9510822   8.3793384  55.4186392  64.6554756  40.0994349  64.8430347
  64.8517609  40.0586271  63.9070654  63.7426186  39.8190784  64.9087620
  16.8243086  35.0414658   9.6012366  16.5975797  34.1961384   9.9888492
  17.0607448  34.8346567   8.6970466   0.5775336  38.4204459  41.8084383
  -0.1453641  38.5963011  41.2061691   0.2700819  37.6896381  42.3447466
   0.6239352  42.5392389  11.9308090   0.6874384  42.0774794  12.7668571
   0.8991096  41.8941355  11.2793875  49.2936039  80.6851101  53.4269476
  50.1994133  80.9543610  53.2744741  49.2171001  79.8400879  52.9838753
   9.3662232  48.7646341   8.0990380  10.1658916  49.1490746   8.4581584
   8.6993235  49.4400692   8.2226014  85.6458187  36.0331392  64.8453712
  85.3444576  35.5166483  64.0979433  84.8699665  36.1309075  65.3973818
  85.0449371   3.2396147  35.6694102  84.1557503   3.3348185  35.3280759
  85.1432610   2.2999232  35.8228540  59.9037647   8.2529068  66.8765259
  59.8638153   8.3805186  65.9287119  59.8725080   7.3031950  66.9918585
  16.2358201  55.5612755   9.6460336  15.8972085  55.1215410   8.8661569
  16.0608876  54.9493408  10.3609955   3.1937894   7.2596443  32.6355076
   2.4572624   6.8840134  33.1178570   3.5256699   6.5362966  32.1036649
  74.1412115  21.5993214  37.8084683  74.6552086  22.2916579  38.2240510
  74.7940063  20.9844160  37.4738288  19.0080106  45.2540112  64.9214840
  19.1049421  45.5414724  65.8293438  19.9043798  45.2018261  64.5897770
  23.2180953  76.2541056   1.5574077  23.9404845  75.6282330   1.6090374
  22.9036403  76.1831188   0.6561252  66.9841051  80.0514889  20.0145745
  67.0339727  80.7527637  20.6641579  66.9031715  80.5066872  19.1764343
  76.3852501  14.5747125  59.0582895  76.5528154  14.0426183  59.8361254
  76.4068365  15.4772782  59.3763161  52.5558281  20.1806927  39.1031480
  52.7465820  20.9104466  38.5138249  53.4161854  19.8469615  39.3573976
  77.5255823   1.2005887  24.3755317  77.5230694   0.4986043  23.7248063
  77.6729679   0.7538808  25.2091765  63.5474682  57.2363710   9.6114111
  63.4860945  56.5766764  10.3022575  62.6415873  57.3831892   9.3392795
  52.9572868  10.9415579  58.5764170  53.8554430  11.2325263  58.7341642
  52.7458858  11.2782431  57.7056789  17.8379905  16.5275645  49.3356466
  17.2908700  17.1234524  48.8239717  17.9916382  16.9909048  50.1590157
  50.8176231  30.6688714  50.1783800  50.4428387  31.5495872  50.1889372
  51.7342377  30.8015203  49.9366140  81.3432503  29.7317076  50.8499956
  82.2380257  29.4594073  50.6463909  81.0563087  29.1222548  51.5300417
  31.0421824  39.0029478  48.7184715  30.1125288  38.8571072  48.8936996
  31.4955115  38.4545350  49.3587589  18.5475850  28.1109357  51.0268736
  17.9957640  27.8303194  50.2968168  18.1343102  27.7277541  51.8005705
  49.3781948  36.4917970  58.8230848  49.8016834  36.8098402  59.6204138
  48.8901854  37.2465062  58.4937048  26.9870377  57.7703714  32.6847196
  26.3457894  57.6715469  31.9809675  26.4743042  58.0692959  33.4357047
  15.0859475  27.8151703  10.6011426  14.4293547  27.1760082  10.3243947
  15.3722250  27.5074196  11.4611220  31.8188500  28.7002969  62.2318983
  32.6132226  29.1588426  62.5056505  31.1038327  29.2183471  62.6014996
  40.8168507  62.8276587  11.0538721  40.2727175  63.3050203  10.4275537
  41.7144394  62.9891777  10.7632172  70.7962465  11.1738443  56.3910007
  71.2535667  11.5933824  55.6622505  70.5607080  11.8959558  56.9735050
  59.9557781   2.4006543  26.0681152  59.5222425   2.3487487  25.2163029
  59.3981600   2.9815483  26.5856647  48.3524466   4.1113624  37.1598601
  49.3033171   4.1732633  37.0690560  48.1584120   4.5794925  37.9719162
  38.1133699   8.8419896  52.3001289  38.2985330   9.7589022  52.0971060
  37.2508264   8.6814016  51.9174242  55.7636738   6.3919926  57.8630257
  55.2002144   5.7454914  58.2882071  55.3565073   6.5401411  57.0095015
  65.2483511  34.8195887  60.2092981  65.1996994  33.8637495  60.1939487
  65.0707626  35.0538516  61.1202383  37.8234959   6.6394758  45.3888559
  38.3156180   5.8197337  45.4343462  36.9178295   6.3672346  45.2409220
  51.2685490  77.3863792  54.2865324  51.1559772  76.4638758  54.0572977
  51.8595171  77.7293587  53.6161947  36.0387111   5.0239569  43.2934093
  35.8752656   4.5844564  42.4589300  35.4880023   5.8063155  43.2639599
  66.2463951  56.5680027  11.8727255  66.4320755  56.2428236  10.9918094
  65.3027010  56.4476633  11.9784904  69.5967913  60.7132101   0.2035313
  70.3742838  61.1785936  -0.1049474  69.4342375  61.0707569   1.0764390
  45.6904125  18.0892026  23.8822865  45.7979250  18.6545503  23.1173968
  46.1845875  17.2982454  23.6668611  68.0656052  23.1063604   4.0164003
  67.2821140  23.3918786   3.5464549  68.5425091  23.9155555   4.2007840
  52.3602247  37.7545404  49.7077370  52.8219366  38.5178852  49.3608046
  51.9734335  37.3381090  48.9375353  15.3779185  69.5853233   4.8428199
  15.6244957  69.1118193   4.0483212  15.2662742  70.4918385   4.5564693
  86.2023392  74.6799994   9.4455940  85.4208401  74.8915577   9.9562156
  86.7722296  74.2178392  10.0602996  64.9992180   7.3513502  69.0981340
  65.5539417   7.7887958  69.7440100  65.3244591   7.6622421  68.2532692
  41.6914034  19.5978391  44.0896702  41.1356735  20.2188206  44.5606041
  42.5129175  20.0690961  43.9508820  42.8752279  33.0822849  46.6107368
  43.2492399  33.1543970  45.7325840  42.9873085  33.9534926  46.9910860
  61.7496252  22.5958228  69.0082073  61.5037823  21.9861221  68.3124638
  61.2585878  22.2966123  69.7734404  77.9282093  36.2364197   9.6971637
  77.6216936  36.2534881  10.6038010  77.1991301  36.5949416   9.1910613
  55.2176523  34.6850991  58.9190340  55.9687328  34.1096067  58.7743855
  55.0781727  35.1136827  58.0745888  79.4888735  36.9597411  37.4448323
  79.1971874  36.0486865  37.4784589  79.4349051  37.1944714  36.5184307
  71.4555216  19.9435079  65.3837442  71.3723421  20.5867958  64.6798277
  70.6264639  19.9998057  65.8588505  44.1530037  15.7285702  49.8729992
  43.3673620  16.2309051  49.6569872  44.2996693  15.9014559  50.8029604
  74.9295855  64.6363163  47.2409821  74.6872425  63.7919903  46.8607044
  75.5232716  65.0263977  46.5994167  49.4748163  12.2373092  35.2826309
  49.2668295  13.0760157  35.6943870  49.0034008  11.5897548  35.8067226
  48.5453939  25.9835982  67.7695799  48.0390215  26.6741419  67.3418331
  49.3976021  26.3836575  67.9425478  83.2287407  50.4391956   9.9861914
  83.6263180  51.3094282   9.9570280  83.5975456  49.9819231   9.2304683
  72.0353651   9.9260163  49.9277163  71.3921165  10.4764450  49.4810724
  72.8793097  10.2122998  49.5783806  21.0629678  63.9987040   0.0185600
  22.0053363  64.0250397   0.1843200  20.7984638  63.1165218   0.2793665
   3.1197038  25.3039861  29.3326139   3.0740523  25.0127912  28.4219265
   3.8682476  25.9001040  29.3562245  67.0055485  57.7121305  61.1714792
  67.7103615  57.5732756  60.5388737  66.3000631  57.1376610  60.8739710
  29.3669152  15.0710762  15.8132756  28.5774088  14.5303750  15.8368540
  30.0517440  14.4813728  15.4978561  48.2390738   2.9847252   1.2763233
  48.5656643   3.8615602   1.4781433  48.9718676   2.5509313   0.8392125
  79.1632366  80.2033234   3.5588178  80.0354862  80.2271175   3.1653079
  78.9987135  81.1060333   3.8313439  11.0591960   3.6555517  61.3055038
  10.2465761   4.0862045  61.5708685  11.1997533   2.9797751  61.9686794
  77.5259590  45.6965208  57.4790049  76.7454481  45.7179642  58.0326939
  77.4447298  44.8825216  56.9819689  15.0740373  73.9396048   0.6347399
  15.9170628  74.3267488   0.3988162  14.7084260  74.5396614   1.2847346
  39.5886326   6.9822818  69.6724510  40.3335381   6.3812101  69.6643591
  39.1415238   6.8207878  68.8416433  24.4630504  72.8284883  66.4271927
  24.1692066  73.5686302  65.8960867  23.8121223  72.1452522  66.2668467
  56.7936039  37.3259163  62.6202774  56.0498333  37.5957155  62.0815325
  57.0221949  36.4554429  62.2943115  63.5855532  58.1160116   3.5173512
  63.6013174  57.5168800   2.7710068  63.8722515  58.9551497   3.1569651
  53.9233065  13.4701741  46.0457087  53.8061428  13.5435963  46.9928694
  53.8581657  12.5318098  45.8683443  68.7012386  12.2295785  27.3610568
  69.5638800  12.2335517  26.9462419  68.6217451  13.0975354  27.7567387
  13.6547160  62.0179987  16.6487408  13.9128375  61.7345190  15.7716751
  14.0657079  62.8760767  16.7537487  22.5382805  66.6825390  23.9389515
  22.1724534  66.2288857  24.6982956  21.7921305  66.8083572  23.3527279
  21.8779492  76.1890125  35.1454020  22.1460223  75.7544899  34.3357372
  21.6873837  77.0893860  34.8822618  73.3592033  28.2469368  56.8260956
  72.9560423  29.0881491  56.6114855  73.0996466  27.6673007  56.1099386
  55.5074453   6.5877181  49.2001677  56.2779713   7.1299618  49.3689775
  55.7934237   5.9672570  48.5297394  23.7907600  81.1735916  14.7743893
  22.8530216  81.2320232  14.9573302  24.1938519  81.7829895  15.3927660
  25.7120371  61.0377979  59.2318058  26.4029551  61.5878487  59.6010017
  25.2059197  60.7474279  59.9905968  21.9818687  34.6460080  11.5216100
  21.6621184  34.6306562  10.6195259  22.0346451  35.5761790  11.7412186
  39.2031169   1.3359553  50.3240299  38.6768460   1.7553583  51.0047436
  39.2919564   0.4284140  50.6150723  51.5130758  76.0933495  68.1480551
  51.0442495  75.6526327  68.8567209  52.4061155  76.1936140  68.4776974
  50.3749895  27.6758432  54.3769503  50.3879118  28.3578110  53.7053967
  50.8812094  28.0434656  55.1014042  29.3438339  42.6579428   2.6925993
  30.2705503  42.8723812   2.5855994  29.3245292  41.7029142   2.7540669
  54.3612766  73.3465290  36.7232871  55.1475096  73.2124519  37.2525239
  53.6447144  73.0333805  37.2752881  56.8273544  13.0296230  54.2804384
  56.8072557  13.2638717  55.2083158  57.7198172  13.2338727  54.0011215
  48.2660294  15.1833189  60.6891632  47.5221062  15.0453246  60.1028490
  49.0105677  15.3200293  60.1033258  49.8777342  57.8363800  55.9944773
  49.7101593  57.7437735  56.9323301  50.4355574  58.6112356  55.9262085
  67.8587866  17.4228799  63.7783480  67.2680616  16.8168986  63.3310652
  67.3463011  17.7576327  64.5142365  53.0925798  22.5950789  28.5375977
  53.8231421  23.1327581  28.2319665  53.5035944  21.7917752  28.8569736
  63.6893034  31.3215065  45.5261564  62.8696918  30.9916592  45.8944941
  63.5780478  31.2356901  44.5793247  85.5054760  80.6186008   1.8289256
  84.9088955  81.3161469   2.1004775  85.0636959  80.1996326   1.0903288
  38.6148089  33.4510185  70.2789590  38.5884780  34.2756178  69.7936036
  37.9753608  33.5662843  70.9818445  43.7499619  25.1092410  66.2359095
  44.5538712  24.7630954  65.8484221  43.5070562  24.4640636  66.8999672
  16.0457230  11.2703836  68.0210733  16.0414255  11.9544137  68.6906385
  16.3555419  11.7114532  67.2300625  59.7236252  14.1980588  58.4065533
  59.3024588  13.7342036  59.1302156  59.0628433  14.8213410  58.1046915
  74.9255705  18.5393143  37.7811217  75.2473783  17.6490116  37.9226494
  75.3373289  18.8155007  36.9623375  31.5199018  16.3401353  56.6998482
  31.3376427  15.4416633  56.9750929  31.8068600  16.2584615  55.7903337
  40.6279087  25.6499434  49.9852324  40.9178400  25.1247001  50.7310820
  41.3740969  25.6469917  49.3857098  63.0592775   6.6589141  38.9771771
  63.3142233   6.9497639  38.1015968  63.4448099   5.7868636  39.0615940
  49.1831112  73.6425734  65.7884884  48.7895823  73.8748217  64.9473953
  48.4588623  73.6886549  66.4126444  67.5586748  80.8084011  31.8548131
  67.1991968  79.9373150  32.0227647  67.6484632  80.8509827  30.9027839
   5.5019236  29.7463822   7.1568877   5.2877027  28.9458823   7.6359946
   4.6746117  30.2254200   7.1088427  79.4052696   7.7652675  38.1371236
  79.0621901   8.6588484  38.1434560  80.3434563   7.8677791  38.2969022
  43.4407425  68.2939625  43.3954096  44.3130970  67.9103374  43.4851742
  42.9159546  67.8548384  44.0647411  54.8728991   4.4380206  59.7331905
  53.9464712   4.6429917  59.8594856  55.0497389   3.7342009  60.3573656
  39.2895079  29.1941714  54.9808502  38.9072466  30.0716901  54.9891090
  38.9059734  28.7586713  55.7420826  45.1235676  12.4899268  51.8336201
  44.7732639  12.7052104  50.9692287  45.5787325  11.6574383  51.7070484
   8.4149766  13.1780803   7.3079038   7.6591575  12.8452241   7.7918220
   8.2866049  14.1263783   7.2859180   4.3240961  76.6678190  55.0782728
   5.2736115  76.7830086  55.1154757   3.9693138  77.5128889  55.3543568
  16.5907216  41.3804483  18.1436193  15.7091987  41.7474461  18.0768335
  17.1611142  42.0606804  17.7856088  35.3529692  76.9368172  41.4768457
  34.7616935  77.5440550  41.0320044  36.1727118  76.9982195  40.9864569
  63.0135584  76.1074734  36.1505413  63.7017536  75.5013609  35.8762288
  62.2206879  75.5720234  36.1802745  12.4280071  54.5771265  23.7465048
  11.7022359  55.0894547  24.1028857  13.1591606  54.7535658  24.3385458
  58.3272409   4.9326304  51.7801809  58.8744211   4.1511977  51.7015266
  58.9227819   5.6608337  51.6033125  52.9497623  10.9315622  30.5625606
  52.7527952  10.0301301  30.8172274  52.1106577  11.3875568  30.6273937
  53.7270832  46.4966679  54.2676067  54.6129322  46.6289616  53.9299726
  53.2484388  46.1046791  53.5372162  41.1919546  33.3906484  50.9657574
  41.9395733  33.9769220  50.8492184  41.0257101  33.0378318  50.0916243
  57.4620676   5.2563047  31.0278130  58.1847858   4.8577318  30.5429912
  57.6178980   6.1981994  30.9586477  40.3982639  38.4698772  57.4210262
  40.7715225  37.9364896  56.7193127  39.5303035  38.7145495  57.1000767
  70.7531071  20.3318691  10.8262956  71.0397816  21.2350917  10.6912279
  69.8202324  20.3421021  10.6121230  55.4149389  21.1767912  42.9321432
  54.9471045  21.8637633  42.4573469  55.7993174  21.6253757  43.6853075
  80.2938938  16.5393794  37.6300907  79.6002531  16.1312997  38.1483221
  80.4047871  15.9576678  36.8780637   0.9174848  64.0525579   9.4829357
   1.8631917  64.0214920   9.3383485   0.5851461  64.6057129   8.7759686
   2.8835145  39.6388268  49.3441772   2.9389018  40.5701208  49.5583057
   3.6832392  39.4587231  48.8499737   1.8581404  16.3643289  61.2444401
   1.3545023  15.5582261  61.1314011   1.5863806  16.6986668  62.0991898
  55.0243235  28.3312058  60.0683212  54.0758324  28.4598422  60.0758743
  55.2094364  27.8659821  60.8841228  33.9699674  42.2697020  35.5429816
  33.8129115  42.2329283  34.5994687  34.9107528  42.1192312  35.6352329
   2.2980227  43.3629990   2.0172307   2.4149989  43.7850618   2.8683549
   2.7928850  42.5464344   2.0847802   5.4113752  59.9471807   2.9799309
   4.9093151  60.7604980   2.9281321   4.7580343  59.2553759   2.8760844
  17.8835273  35.0687742   0.0731610  18.0611598  34.6754694   0.9275558
  18.7076020  35.4888725  -0.1731137  71.7248678  22.7464509  59.2391872
  70.8974314  23.1715322  59.0136051  72.2573709  23.4452653  59.6190929
  51.8270683  19.1496277  33.9679718  50.9637260  19.3701541  33.6183405
  52.2755289  18.7153208  33.2423735  44.5015383  19.9973106  57.1170092
  45.2425003  19.4684827  57.4128962  44.2717743  19.6310771  56.2630081
  20.1053262  73.7189627  26.4186335  20.6838155  72.9589367  26.4814329
  20.1795769  74.1475773  27.2712827  39.3420100  17.7888906  38.8707638
  39.2598605  18.0845737  37.9640913  38.5009694  18.0086517  39.2714953
  46.3084745  58.0772257   7.4588305  45.7986546  57.4894142   6.9013429
  45.7292128  58.8235140   7.6129186  12.9499793  68.0974054   1.8282966
  13.3249307  68.9086962   2.1710077  12.3972678  68.3783245   1.0990316
  24.1342854  81.1591530  43.1236076  23.3452892  81.6729641  42.9512119
  24.5700169  81.6221428  43.8391542  38.0697370  11.3559914  45.9527111
  38.9405727  11.5804827  45.6248665  37.5258350  12.1094728  45.7232141
  22.4728537  54.4842291   6.5669966  21.8034267  54.8597002   7.1389395
  23.3012748  54.6930981   6.9986504  30.8413410  65.2609301  51.5535831
  30.4339695  66.0514307  51.9076824  30.1177406  64.7755051  51.1573458
  49.8991346  23.9378953  46.9402170  50.6042099  23.5290813  46.4382553
  49.1506815  23.9404964  46.3435221  72.3291063  27.1806955  40.6394434
  72.7875757  26.5413284  41.1846447  71.4063215  27.0747757  40.8707047
  57.4792337  24.8004746  36.6362476  57.2244072  24.1754413  35.9575510
  56.7030430  25.3460908  36.7629957   2.5908300  51.0005617   0.4175300
   3.3016485  50.4202414   0.6899269   1.8046154  50.6132269   0.8023296
  28.7112093  40.9097719  23.9721417  27.8496671  40.5996895  24.2511153
  28.7379885  41.8251991  24.2505527  33.5088706   1.0636748  42.2613192
  34.0213108   0.3035626  42.5367546  34.0096450   1.4407726  41.5379524
  57.5300121  24.4946432  69.3401670  58.2620716  24.9254918  68.8989305
  57.9114294  24.1343355  70.1407433  46.4246035  13.5752070   1.9706616
  46.0913992  12.7332890   1.6602066  47.3736763  13.4572601   2.0103741
  76.6682225  57.6196442   0.1802771  77.2686988  58.3546446   0.0560229
  77.1804124  56.8482660  -0.0623567  34.0552378  37.8534746  58.9093399
  33.1867814  38.2448316  58.8152266  34.1678476  37.3271966  58.1177711
  54.9730206  21.5525126  65.9945965  54.8061037  21.8030667  66.9032192
  55.7611942  22.0389414  65.7529354   1.0079688  52.6618338   8.1920725
   0.6509855  52.0659447   7.5335050   0.9027374  52.1940279   9.0205157
  45.2091455  30.8804464  52.9541063  45.2813530  30.1681185  53.5894060
  44.2732859  31.0788798  52.9220915  38.9895749  15.1076889  67.4858856
  39.5248961  14.3715060  67.1897459  38.4909439  14.7592342  68.2249260
  11.0592842  13.9126289  54.8078871  10.3841257  14.5853305  54.8965740
  10.9264123  13.5541582  53.9303493  25.0647187  72.8144312  31.7936730
  25.0426197  73.6592770  31.3442588  24.9410915  73.0313826  32.7177310
  56.9935322   9.4579732  34.0292788  56.4271784   9.9617541  34.6138120
  57.3824310  10.1128244  33.4494877  41.4102411  56.7806482  25.5004597
  41.7089653  56.0191298  25.9975386  42.1824551  57.3425817  25.4360485
  31.9555283  23.1236887  26.8302488  32.6345944  23.3490777  27.4660945
  32.3886561  23.2000017  25.9800673  31.8188429  25.1006198  54.8750830
  31.1892772  25.7696557  55.1439142  31.4390898  24.7185278  54.0838671
  53.1530923   0.6412698  70.0664880  52.7166909   0.1461031  70.7597349
  53.4410256   1.4481689  70.4933858  41.4952421  63.3306074  19.3684435
  40.8832788  63.8114214  19.9257183  41.8157721  63.9832640  18.7459219
  20.0096703  78.2667446  65.1817608  19.1826069  78.3975458  65.6455421
  20.2451730  77.3570347  65.3639793  62.6922131  11.4354432  35.3899288
  62.4223661  11.8509626  34.5709300  62.4775314  10.5102170  35.2711749
  65.9311724  14.9730051  27.7627325  64.9996805  15.1549101  27.8870702
  66.2589264  15.7265604  27.2718525  70.1952839   6.1748093  39.3011379
  70.2644587   6.6555053  38.4762883  70.0813055   6.8543690  39.9655485
  41.5583563  77.1669674  51.6292238  41.2371778  76.3407993  51.2679434
  40.7697296  77.6216459  51.9251442  43.9197016   4.3478689  47.9816628
  43.4675884   4.0942997  48.7863541  44.7790956   3.9316812  48.0484581
  40.1784134  30.8802223  67.5199461  39.3074679  30.5563927  67.7497721
  40.0304031  31.4512730  66.7661381  48.7178326  77.6983404  27.0808244
  49.5820761  77.3355341  27.2749591  48.7007284  77.7792358  26.1272025
  28.5229206   2.5137860  39.6310067  28.3380008   3.4222984  39.3930125
  29.4433308   2.5176227  39.8938036  19.8231959   3.1241712  15.2236605
  19.2987907   3.2562312  16.0134649  19.6395743   3.8924235  14.6830094
  61.1703587  25.5340695  38.9963889  61.9668245  26.0440612  38.8487935
  60.5148983  26.1825609  39.2534137  12.5703311   8.7118882   4.8681402
  12.7254379   9.2714590   5.6290960  13.3070230   8.8921243   4.2841613
  84.1579628  17.7032471  67.3652363  83.3686829  18.2287216  67.2342968
  83.8313007  16.8360448  67.6049995  63.6446190  67.7339125  38.4975171
  64.2764235  67.9955769  37.8277540  62.8155184  67.6529408  38.0260706
  61.0319948  31.4554143  58.2878637  60.4410601  32.1984935  58.1659603
  60.7951927  30.8441424  57.5903654  65.9779024  77.0020199   2.5136262
  65.1795340  76.4901304   2.6432663  65.6835842  77.7958012   2.0669506
  84.8385334   7.5033689  10.2950811  84.5387650   7.0487750   9.5078617
  84.2300510   7.2242099  10.9792233   6.6663325  73.0461168  50.3621960
   6.6745931  72.1592569  50.0021315   6.0324919  73.0079222  51.0784483
  81.2269688  24.7055149  54.1173506  81.3280678  24.8168802  53.1720400
  80.4687214  24.1288519  54.2108440  21.8118811  19.1465962  61.1080408
  21.5819907  18.8159454  61.9763994  21.6770124  18.4002185  60.5241156
  68.2865286   2.9689828  57.5606251  68.3657360   2.6490447  58.4592915
  67.9339838   3.8542181  57.6517439  76.9101954  36.8361831  33.6481285
  76.4061880  36.0436153  33.4636354  76.2542200  37.5316882  33.6949921
  77.0714092  35.2872729  42.8266287  77.3228693  35.3376436  41.9044256
  76.1406183  35.0646663  42.8092718  52.3916626  28.7433815  60.5803585
  52.2200632  29.5615220  60.1140642  51.7820692  28.1148624  60.1935863
  69.2064333  34.1482425  56.6391850  69.4128180  33.4099483  56.0659885
  69.6280003  34.8999548  56.2227249  19.5305026  31.9255996  68.1011534
  18.6051452  31.7376041  67.9443026  19.8066616  31.2600660  68.7312603
  54.2897892   4.3603498  30.1233935  55.0560713   4.3012747  30.6939673
  53.5615110   4.0632784  30.6689095  66.3736725  26.6062450  61.4202785
  65.6031322  26.3444543  61.9242239  66.0773849  26.6019654  60.5100965
  29.5259118  68.6420059   9.4987375  28.9997196  68.9564085   8.7635475
  30.4022312  68.5230255   9.1324896  53.5887432  44.4039202  58.5098886
  53.7263346  44.4980145  59.4524670  54.1312265  45.0889206  58.1190968
  67.7607918  37.0054364  48.7353754  67.2592115  36.5197730  49.3901873
  68.5299778  37.3218727  49.2091370  75.5980730  15.3873050  35.1194263
  75.3578854  15.8091891  34.2944670  76.5456295  15.5071318  35.1827312
  25.1445317  18.2858682  29.0931177  25.1702237  19.2197132  29.3016934
  24.2308307  18.0351210  29.2291498  85.0861740  39.6185970  39.9305415
  84.2349625  39.8459768  40.3046656  84.9106789  39.4861984  38.9989281
  79.1136456  54.2053270  52.3744059  79.7522449  54.8691463  52.1141005
  79.3482542  53.4326935  51.8603706  61.8166924  65.8359957  53.6998558
  62.3353720  66.6366816  53.6217403  60.9417057  66.0876465  53.4043837
  57.6062632  69.4065046  43.8837719  57.4270344  68.6550856  43.3185434
  58.5568857  69.5123959  43.8471746  24.4066644  45.4360962  25.2378702
  23.4606314  45.3299093  25.3377724  24.5032310  46.0492039  24.5091677
  63.8898373  65.5344534   6.0575801  64.2737627  65.4212856   6.9270784
  63.4046745  66.3575697   6.1152661  77.8883696  27.3943067  27.0249963
  77.6510811  28.0725312  27.6574039  78.8443136  27.3590422  27.0589828
  36.4876008  62.0584154  22.9060602  35.9748077  61.4665174  23.4564495
  36.5203333  61.6245747  22.0534515  56.2229729  47.7274132  69.5980835
  55.5404758  47.1576595  69.2433882  57.0187807  47.1964741  69.5660305
  56.2518978  51.8585682  58.8045359  56.7716694  51.2605095  58.2675123
  56.7961597  52.6417446  58.8860321  65.7537127  45.5975914  42.6627636
  65.7853222  45.4236937  43.6035061  66.4668226  45.0733852  42.2981977
  15.0912130  48.0601978   6.0842890  14.7625232  47.5450706   6.8210632
  16.0314691  48.1370211   6.2462986  37.1685123  57.3562813  20.2262402
  36.9559169  57.7321339  19.3719745  36.4549589  56.7430544  20.4023886
  21.1819577  21.7107916  11.2326181  20.3183126  21.7006636  10.8200097
  21.0260963  21.3938498  12.1222746  79.6533108  28.6021852  30.9578323
  80.3513241  28.6144686  30.3029633  79.6583271  29.4841361  31.3298106
  78.6439800  29.0315986  52.9528570  78.0111742  29.1140199  53.6662912
  78.5826683  28.1152797  52.6829863  40.2063513  26.6826153  19.2111015
  40.9403563  26.0724616  19.2830443  39.9331522  26.8363452  20.1155138
  34.8900390  18.1608868  22.9411197  35.2357626  17.3296428  23.2662988
  35.6523323  18.7384844  22.9021263  50.5114126  23.3466816  28.6323953
  50.8974648  24.2223859  28.6140656  51.2600613  22.7535295  28.5696697
  78.9739656  45.9291840  29.7195673  79.2591667  45.9325361  28.8058496
  78.9454317  46.8539524  29.9649668  75.5485773  40.0032949  36.4709044
  75.0940323  40.5512762  37.1106982  76.2709999  39.6113420  36.9615221
  19.0024674  19.4142509   0.6391458  19.1406286  18.6074615   1.1353663
  18.6098123  20.0186110   1.2690683  76.7160463  20.9792256  30.7544470
  76.4756584  21.9055963  30.7711816  76.0491323  20.5490136  31.2895846
  47.9764986  47.1723413  65.1343822  48.4224463  46.3371181  64.9938107
  48.6566305  47.8324747  65.0006962  30.5589151  23.8684964   4.4197935
  29.8037267  23.6784577   4.9763972  30.1795650  24.2069435   3.6087584
  64.8005915  45.7172775  51.5254402  65.7286549  45.9495306  51.5568829
  64.7139120  45.1834297  50.7356787  73.5874033  46.2381935  39.9605942
  73.4283781  45.3145361  39.7661734  72.7696609  46.5446997  40.3524971
  55.5706406  69.7700357  39.2762995  55.6404972  70.5946589  38.7953138
  54.9442053  69.2509222  38.7719846  66.2883234  31.4364004  46.2950230
  66.6177320  30.5406237  46.2221909  65.4449272  31.4189696  45.8426857
  23.1089425  67.5567532  12.7352548  23.5321188  68.3712673  12.4637413
  22.3850203  67.4459362  12.1189034  86.4351845  19.0758467  54.0540266
  86.3700581  19.0461969  55.0085497  86.1943436  18.1940484  53.7700176
  53.7805271  28.8551641  67.3543692  53.3765316  28.0347395  67.6370764
  53.3183861  29.0843296  66.5480566  52.6610327  50.1045036  60.7389975
  52.1196556  50.4549932  60.0316715  52.7169132  49.1666889  60.5556488
   7.9217356  34.9523211  70.2138948   7.7105087  34.2154527  70.7871675
   7.1711069  35.0194979  69.6237469   1.4169483  38.1823897  54.4296217
   2.1927673  37.7516031  54.0707922   1.3416158  38.9952469  53.9297962
  73.6821461  61.6807747  48.3929300  73.4103155  61.9206619  47.5070429
  73.2319498  60.8539724  48.5659742  64.6773720  46.6587543  56.8751097
  65.0314379  45.7703686  56.9156361  64.7273922  46.8944931  55.9487438
  69.8885202  17.5238967  52.2478008  69.2912436  16.9068480  51.8250275
  70.7255220  17.0608675  52.2833967  15.6132388  79.8873949   6.5208000
  16.1957347  80.5775928   6.8378985  14.7570431  80.3097057   6.4513952
  30.3231573  77.8793287  52.9306030  30.1439309  76.9393158  52.9085732
  29.5228076  78.2675314  53.2841158  13.4637165  34.4124436  63.4899044
  14.1154408  34.0939331  64.1144371  13.1460798  33.6229706  63.0516481
   1.7524961  37.8741908  39.2915082   0.9411012  38.0108452  38.8024330
   1.5265849  38.0917692  40.1958609   4.5247880  44.4389391  26.7426300
   4.2669749  44.3428183  25.8258295   3.7433487  44.7814465  27.1765327
  61.1729050  22.4983954  57.2046423  60.5274725  22.8035617  57.8422356
  60.7161236  21.8199110  56.7074156  77.3658657  33.8524890  31.2640214
  77.0873022  34.3532014  30.4972625  78.2644653  34.1405010  31.4246345
  61.9490051  39.0329289  17.2873425  62.2482920  39.7875786  17.7944541
  61.5538073  38.4501529  17.9357409  66.5498495  14.0621626  57.4660921
  66.1395836  13.8286185  56.6334057  66.9090652  13.2383358  57.7954912
   6.9407701  77.6335859  51.2600327   7.0577461  76.9285393  50.6232786
   6.7984176  77.1832275  52.0925856  16.0472786  66.5229464  70.1325226
  16.1626697  66.3569498  71.0681295  15.5853176  65.7502270  69.8073626
  33.4865880  75.3141785  32.5609088  33.7278938  75.9454823  31.8830752
  33.1712794  75.8516693  33.2874846  62.3288393  51.3664341  57.3809433
  62.6046371  50.4716396  57.5797176  63.0316353  51.7178249  56.8342829
  85.2893543  76.8385649  48.0312824  85.2604485  77.5838804  48.6311960
  85.8006382  77.1514750  47.2850180  66.3424206  29.8838663  49.9881363
  65.4065704  29.7063446  50.0824881  66.6032267  30.2496290  50.8333778
  76.2458038  25.0715399  51.7024517  75.8406019  25.6681800  52.3317862
  77.1692657  25.3232956  51.6940594  69.9681425  53.8392115  14.9366701
  69.9125338  54.5334339  15.5933225  69.7413731  54.2702389  14.1126418
  74.6245384  56.8648291   3.3256626  74.3616486  56.0722494   3.7935686
  75.5715609  56.9163227   3.4549901  73.6778021   1.7515115  63.0972242
  74.0270901   1.4342907  62.2643995  74.4484997   2.0413652  63.5853291
  26.8146157  80.2812481   3.3094344  27.3643947  80.4292202   4.0789014
  27.1315956  79.4553614   2.9438329  62.9898310  32.4748182  14.4536233
  63.6186075  33.1956053  14.4901836  62.9924488  32.2009826  13.5364318
  25.3623390  77.7916098  54.3028688  24.5041108  78.0654478  54.6264267
  25.7839084  77.3826027  55.0586605  85.9958076  29.5108819  29.0595031
  86.2476158  28.6092114  28.8599586  86.4772320  30.0402856  28.4237385
  35.4159284   3.4710717   7.0251238  35.9900403   4.0005440   7.5785542
  34.6120501   3.3757934   7.5359422  29.0433121  25.1380706   2.5239661
  28.3417416  24.5073318   2.6858181  28.8273287  25.8850360   3.0822021
  28.4437990  33.3908987   1.7615663  28.8790751  33.2484293   2.6020825
  27.8051734  32.6806235   1.6991334  43.5283518  59.6637630  47.9989338
  43.9518785  60.1641321  48.6964178  44.0854692  58.8938951  47.8842402
  41.4663315  27.7672911  60.5538988  40.9363556  27.0575309  60.1911306
  41.5046644  28.4193206  59.8541689  14.1694260   8.0809361  51.4208174
  14.1531909   8.2648510  52.3600388  14.6571791   8.8122302  51.0419512
  77.2140598  60.5891037  41.4179516  77.3335123  60.2322388  42.2980690
  77.8195047  60.0875759  40.8719349  64.4268894  52.9417086  49.5053816
  65.1428890  53.5165501  49.7758198  63.7568474  53.0607796  50.1785040
  76.7195606  69.7020149   4.5959279  77.5932121  69.5172739   4.2512035
  76.4407635  70.4911900   4.1314840  68.4126568  27.2300315  56.9081640
  67.9643774  26.4079285  56.7096138  68.8080645  27.4939442  56.0773611
  45.5895662  34.3254495  69.1360855  45.8593369  35.2147698  68.9068174
  44.7120810  34.4287586  69.5042896  33.3482504  52.1076059   8.6982757
  33.8269854  52.0607185   7.8707212  34.0167427  52.3185778   9.3500751
  25.1502466   9.1929078  69.0013504  25.1728296   8.9328951  68.0804205
  25.2632165  10.1432729  68.9847422  58.8807201  13.2997000   9.5874488
  59.3803883  13.9357889  10.0992668  58.2505131  12.9345727  10.2085400
   3.4050170  39.9765444  37.1126413   2.6486897  40.3271198  37.5830650
   3.1219989  39.9379182  36.1990547  84.5150280  39.9213004  25.8620238
  84.9654007  39.0794468  25.7936502  84.8177719  40.2881289  26.6926932
  51.7342949  62.6806068  44.5324326  52.3733711  61.9680786  44.5218039
  52.0997143  63.3210135  45.1428270  55.3396368  20.9372973  55.0560904
  55.0914526  21.7035627  54.5389128  54.5067263  20.5409956  55.3119040
  53.3766413  64.4548750  45.8622885  54.0866184  63.8269949  45.9962034
  53.4935570  65.1007986  46.5589619  63.3973122  20.9315825  56.5053988
  62.5456905  21.2773633  56.7726278  63.2232761  20.4768109  55.6813049
  16.4634645   1.3481076   2.5561279  15.8316171   1.6610385   1.9087675
  17.2342193   1.9003379   2.4249360  63.1299782   2.5973696  65.4798746
  63.6225510   2.0421159  64.8754787  63.4262943   2.3270842  66.3490009
  83.5901928  12.3068631   4.9047667  84.0231419  12.9027879   4.2934862
  84.1965199  12.2381222   5.6422418  69.6076488  38.4088159  29.9930167
  69.7455454  38.4628081  30.9386921  70.2986050  38.9553046  29.6186328
  61.9882917  18.2603168  28.6131024  61.4487028  18.4938228  27.8577590
  62.2750759  19.1003120  28.9714265  57.2414923  17.1795964  42.5164700
  57.2437477  18.0880094  42.2147846  56.6495609  16.7287242  41.9143391
  23.6856413  55.6638193   9.8819095  22.7870250  55.4167366  10.1002395
  23.8864398  56.3866901  10.4763651  79.9531174  23.7091470  46.9978809
  79.3212748  23.3872676  47.6408386  80.4923820  24.3331933  47.4836636
  15.5422473  61.1390543   7.1009499  14.7553778  61.4035416   7.5775188
  16.0195017  60.5827904   7.7166003  58.4377241  41.8664455  54.2368269
  57.6964331  41.3430786  53.9321852  59.1875648  41.5267324  53.7483978
  67.1832132  58.3961296  54.2730141  67.8285742  57.7990866  53.8944960
  67.6770449  59.1939831  54.4622040  55.2652550  26.2154412  52.0992327
  56.0927486  25.7517147  51.9709826  54.9345207  25.8882928  52.9357862
  53.5666847  31.1039853  49.7920465  53.9622831  31.8506289  50.2417755
  53.9356518  30.3373051  50.2305651  81.5249920  59.7546864  25.8078790
  80.9823608  58.9950943  25.5962253  82.3779392  59.3840456  26.0344648
  52.8516340  38.9750481  70.4039192  53.0409145  38.5712290  69.5569611
  51.9004011  39.0814805  70.4112768  72.6508904  72.9383039  69.8434114
  73.4557009  73.4556866  69.8721647  72.6605225  72.5282621  68.9785385
  72.0805120  36.8232417  41.1959791  72.7504873  36.2476349  41.5648222
  71.2614107  36.5181541  41.5861368  67.9363346  32.9779959  58.7871313
  68.4111929  33.4440994  58.0990267  67.5867653  32.2002411  58.3522415
   8.4320670  50.9910631  27.2967219   8.7982756  51.3348436  28.1115460
   9.0915895  50.3742790  26.9791722  21.8888855  60.2351713  16.1815512
  22.5890827  59.7440100  16.6113377  21.1423683  60.1575470  16.7756188
  54.9662399  15.6536996  41.6763830  55.0149775  14.8853755  41.1075783
  55.0622559  15.3027427  42.5617313  23.9869022  68.3997107  59.7658014
  24.9186850  68.1805944  59.7644043  23.6179304  67.8724432  60.4743767
   2.4920504  71.8126678   3.6363533   2.6068985  72.7334452   3.4013870
   2.4410798  71.8139505   4.5921946  63.5427761  23.6664557  53.9763117
  64.3297625  23.3767200  54.4377708  62.9186249  23.8712525  54.6725368
  42.7034807  41.6713047  64.7922802  41.9298315  41.8725634  64.2657948
  42.6563740  40.7260704  64.9356222  68.5133219   2.3661542  22.0459104
  69.4299364   2.1191333  21.9233084  68.5480833   3.1539142  22.5885510
  10.7026911  34.3385720  25.2656984  11.4689839  34.6335506  25.7576489
  10.3680253  33.5949016  25.7668853  84.9759007  38.4476399  13.6434650
  84.8838997  39.3713808  13.8768494  85.6556416  38.1185627  14.2315960
  65.1209307  23.1860828  63.4467411  65.0135946  24.0295935  63.0071974
  65.5510092  23.4003997  64.2745876   8.2164115  77.8758621   6.1223716
   8.8757002  77.2828770   6.4828390   7.3811620  77.4469328   6.3084042
   4.0205583  64.4541740  69.1242456   3.1350291  64.5494890  69.4749355
   4.2832163  65.3447676  68.8916874  65.1356792   4.9424177  70.5347157
  65.1326609   5.6454474  69.8851204  65.4442024   5.3604549  71.3386393
  48.9267540   5.0959605   5.4449725  49.8130512   4.8622602   5.1691222
  48.7839413   4.5906848   6.2453055  46.6319847  17.5378716  64.0353632
  46.6120958  17.6051450  63.0807400  46.2089777  18.3403397  64.3408871
  81.2264538  50.8699989  32.0282006  81.3132191  50.4742050  31.1609912
  81.3524437  50.1423883  32.6372528  76.6268063  80.6927299  15.7588673
  77.2260189  80.9754181  15.0680268  75.9512758  80.1930809  15.3003383
  43.7942600  78.8034105  51.4368153  42.9919386  78.2813931  51.4405918
  44.0060377  78.9103842  50.5094862   0.6226509  46.8138981  55.5302858
   1.5392782  47.0131969  55.7208300   0.3667816  47.4649906  54.8769569
   3.3406147  41.8601418  40.5903673   2.5374579  41.7760658  41.1042738
   3.5225984  40.9719610  40.2833605  83.0346680   4.9280897  65.1090384
  83.2561970   4.0641060  65.4564381  82.0858383   4.9005601  64.9856997
  73.5038233  61.4724112   4.1965148  72.7420568  62.0495844   4.2495742
  73.1332636  60.5934954   4.1163540  44.7987938  42.1822405  60.7547474
  44.5236397  42.5272799  61.6041374  45.0396872  42.9576635  60.2478743
  67.4886465  11.2989736  17.5682735  67.7318668  10.6710482  18.2485557
  68.0095863  12.0778072  17.7639055  46.5231800   0.3490373   5.5296564
  46.2071705   1.1999481   5.2258128  45.9026861  -0.2814183   5.1639444
  19.0962517  35.4396200  52.3648357  19.2095029  36.1264920  51.7078638
  19.4689834  34.6566820  51.9594860  83.4743214  44.2756414  65.9611225
  83.8547421  44.9127007  66.5658283  83.6430359  44.6398640  65.0921535
  77.9338455  63.4730864   7.0798701  77.3295403  63.1236744   6.4249229
  78.7608242  63.0231714   6.9069082  49.9721336  36.9657207  62.0683241
  49.1276693  36.5675116  62.2793627  49.7480249  37.7580190  61.5802002
  55.3594112  40.1861858  69.8703575  54.4312572  40.1169538  69.6468163
  55.4465055  41.0535812  70.2656698  75.1819801  57.3975658  66.2974501
  74.8838091  56.4990520  66.4388609  74.5876694  57.9327202  66.8234110
  72.6065016   0.1488388   9.4382650  71.6740894   0.0364083   9.6231943
  72.9986048   0.3382446  10.2906799  23.3197856  28.3966160  11.0134304
  22.3762894  28.2522202  10.9413421  23.6677361  27.5586224  11.3182712
  79.8220062  64.3336248  67.3382807  79.3961239  63.5038805  67.5536394
  80.5699253  64.3806076  67.9337931  68.4067249  55.8175373  51.1412191
  67.9802704  56.6514540  50.9438467  68.9073181  55.9874821  51.9391870
  44.1136980  38.7266684  63.8506985  43.3754921  38.2276607  64.2003822
  44.5636988  39.0633607  64.6255350  47.0563364   6.2487090   7.7374870
  46.6843176   7.0680445   8.0638647  47.1241903   6.3766134   6.7913014
  13.3473825  61.2623024   9.4652992  13.5346532  61.7927170  10.2397799
  13.4561467  60.3587103   9.7618198   9.8405433  32.9497290   0.3475976
  10.2442813  33.7551332   0.6709419   9.1783297  32.7334857   1.0040606
  27.5574493  59.4212723  48.5124302  26.7972970  59.2645073  47.9522276
  27.5789785  58.6683941  49.1031456   3.4815237  51.7605352  68.3512306
   3.5950994  50.9491158  68.8461399   4.2285645  52.3024893  68.6051035
  26.3325119  54.5350885   0.9091414  25.4500055  54.8953772   0.9963458
  26.1981726  53.5917377   0.8181635  62.3609447  20.4401851  50.5335474
  61.5349197  20.9225416  50.5688810  62.1003151  19.5277894  50.4077053
  51.0046005  37.6710558  64.3628883  50.7743979  37.2510266  63.5341454
  50.4122782  38.4204698  64.4242334  19.2684567  49.3560648  36.2972474
  19.4016409  50.2236032  35.9153104  18.3190906  49.2340994  36.2894177
   9.9773610  20.8074594  12.7524412   9.1265857  20.3844547  12.6363361
  10.4393697  20.2486897  13.3773851  50.1414824  79.5452642  44.5603228
  49.7724771  78.9716768  45.2319384  51.0763931  79.3399286  44.5572710
  47.8220224   6.7787832  10.8835363  48.7577105   6.9163263  11.0312045
  47.5699091   7.4764669  10.2786326  53.4699011   8.9411968  56.6373682
  53.9398003   9.2912298  55.8804655  53.3364677   8.0163640  56.4297295
  13.1143904   0.6960585  45.3953171  13.6392474   1.2686554  45.9546804
  12.4831545   0.2923778  45.9909773  77.1662140  62.6069498  26.4631963
  76.2230873  62.5146961  26.5982223  77.2449398  63.2303143  25.7410836
  70.6693840  38.2237124  32.4882078  70.3995895  37.3208690  32.3199368
  71.0753059  38.1948686  33.3545971  31.0383606  74.0233326  61.3680935
  30.3824878  73.6715746  60.7661533  31.8373704  74.0817022  60.8442497
  44.6320391   6.0656106  65.3239679  44.6721601   6.5999871  66.1171055
  45.5404568   5.8128786  65.1592398   3.3599415  26.2277770  47.6894712
   3.5763928  25.4127097  48.1422949   3.3297774  26.8865085  48.3832979
  43.6745834  26.9940162  52.2129869  43.8571310  26.5203524  53.0245018
  42.9208946  27.5457954  52.4220800  80.0083351  35.3862047  59.8147535
  79.2248201  35.5578589  59.2923832  80.0508022  34.4319344  59.8763561
   7.2643721  45.9134436  55.1117325   6.8183041  45.2366352  54.6026325
   7.2108853  45.6066036  56.0168409  64.4669962  18.1459379   3.7709272
  64.0115356  17.8181458   4.5463881  64.9119568  18.9383137   4.0715671
  61.5955973  61.3536072  48.5299587  62.4987793  61.5527105  48.2832766
  61.4694071  60.4432344  48.2625151  61.7012310  27.5249600  57.2817373
  60.9453726  26.9376731  57.2842550  61.6202402  28.0230594  58.0951071
   4.6766022  50.7344007  28.4750319   5.5233592  51.0480213  28.7926435
   4.7255462  49.7824764  28.5626769  18.3788073  65.7470560   3.5475266
  19.0670073  65.0933123   3.6709499  17.6972198  65.2876282   3.0570197
  62.8408003   2.9187980  33.4690428  62.2332287   2.3667285  33.9612913
  63.0147076   3.6600000  34.0492225  16.1232889   5.1959002   4.7384885
  16.4825773   4.4026363   5.1358247  15.3344595   5.3826022   5.2475286
  77.3226881  66.9004869   3.7832016  76.9206047  66.6527700   4.6157849
  78.0571032  67.4626827   4.0297863  66.6916513  52.3568869  34.0233231
  66.0960484  53.1059456  34.0431142  67.5659943  52.7452278  34.0541172
  38.9921212  71.4853573  11.6107881  39.3286347  71.6011143  10.7221997
  38.9366364  72.3734808  11.9634795  76.7821121  21.8447828  54.4171906
  75.9962749  22.0788646  53.9233303  76.4532518  21.5607619  55.2700758
  66.4745808  45.8204746  66.4789963  65.5173922  45.8233166  66.4819765
  66.7105055  44.9518108  66.1534309  52.1365356  40.9397840  65.0516653
  52.2535133  41.6035128  64.3719482  52.9720497  40.4734230  65.0773478
  85.6877899  51.9862938  46.8823385  85.8007812  51.0358095  46.8758440
  86.3432217  52.3011637  47.5048256  67.1245050  60.3620720  36.6326904
  68.0237770  60.1844501  36.3570261  66.6953325  59.5066547  36.6154861
  58.8383627  13.7680221  29.2452097  58.9614058  14.7101951  29.3609738
  58.7863445  13.4220123  30.1361680   5.1105410  21.0718155  44.7355938
   5.0504553  20.3293562  45.3367376   5.0731421  20.6779242  43.8639975
  10.1096487  71.1960936  60.2096319  10.7190919  70.4724360  60.0642681
   9.7721606  71.4037085  59.3382978  16.8918347   2.3534931  23.6104703
  17.6033640   1.7973363  23.9277196  16.0976624   1.8472949  23.7816024
  54.2855167  53.5488605  42.5702667  54.5497751  52.7620888  43.0471182
  54.4687033  53.3458185  41.6529608  86.8574785  79.9504471   4.1301095
  86.4260950  80.3777313   3.3901316  86.1766707  79.8865509   4.7999227
  60.6177902  70.8893585  35.2918530  60.3769207  71.7941236  35.0928307
  61.5743876  70.8978748  35.3247738  84.5607471   2.4037999  58.3957100
  84.9166012   2.2544859  57.5197554  83.9955330   1.6482353  58.5566139
  55.8065319  48.7339449  60.5694151  55.3713369  49.5199156  60.2391291
  56.7328072  48.8719225  60.3714085  55.6087542  35.4182959  64.7811508
  56.1915255  36.1384273  65.0220251  55.0313139  35.7902288  64.1144753
  77.1745110  53.0380440  34.9798560  76.3785267  52.9068756  34.4646525
  77.2636127  53.9888525  35.0451183  32.3248506  11.7578852  62.9408979
  32.5784349  11.4111233  63.7962866  32.4973798  12.6973855  63.0025959
  50.4564190  52.7914572  66.3393164  50.6147289  51.9416666  66.7504501
  50.6400728  52.6464033  65.4111624   0.8657132   3.1812093  40.9522152
   0.5311147   3.7507591  40.2594757   1.8154103   3.2960898  40.9189081
  49.6355104  13.0275869  15.0935137  50.2417994  12.3662090  14.7600126
  49.8473310  13.8184547  14.5976412   9.0064526  59.5841122  36.2921214
   9.7492242  59.3282890  35.7452393   9.4041806  60.0005674  37.0567179
  58.0646229  40.2678347  68.6863899  57.1476889  40.1287031  68.9232588
  58.3355045  41.0219145  69.2100477  81.2990952  34.3004251   2.5212410
  80.9065056  33.5350680   2.1013157  80.7624817  35.0365281   2.2272454
  19.4784009  33.0635071  60.6938219  19.0479648  32.2887039  60.3323841
  19.8516178  32.7651548  61.5232325   9.4438416  66.3616514  66.3674212
   9.6267629  66.6555595  65.4750156  10.1938558  65.8131886  66.5974236
   8.3609271  23.3754873   5.3408808   9.0386057  23.6586428   5.9547257
   8.1303960  22.4923587   5.6292760  15.3325391  25.3744006  43.7632608
  14.9452782  24.5651984  43.4294176  14.8105490  26.0714507  43.3659267
  11.3056266   7.1795219  41.8874121  11.4896965   7.8596145  41.2394714
  12.0070374   7.2674525  42.5327969  82.7067852  23.0567551  15.9648418
  82.0284462  23.7080002  15.7860339  83.5294247  23.5129142  15.7875967
  27.9133844  56.8675566   7.3887676  27.6405168  57.1502686   8.2616067
  28.8219118  56.5877819   7.5007504  67.3605156  39.6601486  65.5551577
  66.4040565  39.6477270  65.5907059  67.5677633  39.5162201  64.6318150
  85.4012012  56.5205145  48.3610630  86.1386967  56.9671917  47.9453754
  84.8327065  56.2686300  47.6333237  60.7772350  66.1285782  16.8784869
  59.8226595  66.0612011  16.8565655  61.0544157  65.8922195  15.9933114
  60.9636736   8.2597810   2.7866220  61.8242359   8.6528784   2.6412168
  61.1424112   7.3258293   2.8962541   5.5101824  59.9982786  56.8229342
   6.2073207  59.8947668  57.4706316   5.9519303  59.9061203  55.9787798
  51.8096781  54.3376493  58.6655283  52.4014425  54.8641062  58.1280375
  52.3058414  53.5423613  58.8593674   0.0948093  55.4061699  50.6721878
  -0.2369647  55.7309914  49.8351431   0.5471164  56.1564064  51.0579348
  51.7542267  36.0016990  66.4724398  50.9978008  35.4749727  66.7305326
  51.4507198  36.5014696  65.7145882  13.1877327  47.6676035  38.7527251
  13.4557772  46.7501736  38.7007284  12.5679576  47.6951075  39.4816637
  11.4660394  69.8447943  35.2816558  11.9664586  69.1692877  34.8239470
  11.7974806  69.8214674  36.1793399  29.9674439  14.7697830  23.3122969
  30.9054875  14.8879600  23.4617567  29.5842910  14.7618032  24.1894293
  74.4747877  13.4019172  30.9614944  73.7276411  12.8150702  31.0781717
  74.8283148  13.1716597  30.1022887  43.1090879  62.1906614  42.1725845
  43.2435369  62.3466063  41.2377930  43.0525541  61.2383413  42.2508383
  20.2808809  45.6029272  50.1634407  21.2245059  45.4618692  50.0865793
  19.9861920  44.9253225  50.7719135  68.2751656  33.8747025  50.6614399
  67.6081514  34.5415521  50.4982233  68.0153227  33.1362009  50.1106882
   1.6920628  57.7332783  43.0946493   1.4892505  57.1465540  43.8232470
   1.8361814  57.1494293  42.3499489  68.0027151  53.9468575  61.8716764
  67.2030783  54.3170595  61.4978266  67.7043962  53.1852150  62.3688030
  26.2205362  55.4292107  41.8324137  26.5798378  54.5440388  41.8924141
  26.8656516  55.9152555  41.3187742  75.4361868  50.3059959  70.1213455
  75.1396179  50.7192898  70.9321880  75.5839396  49.3906641  70.3591967
  24.8106718  56.0974073  65.2509642  24.2017031  56.1879778  64.5180321
  24.3781257  55.4866076  65.8476734  16.0939908  61.3893318  40.4306173
  16.5562952  60.6451082  40.0450802  15.7529688  61.8747091  39.6793890
  72.9175311  -0.0883007  56.2251711  73.0799609   0.4131222  55.4261589
  71.9735891  -0.2470017  56.2206173   7.2143328  65.0212860  59.7779894
   6.2778485  65.2150965  59.8187923   7.5546485  65.3040743  60.6267834
  51.5609932  16.9475579  22.3567653  51.7784309  17.8732145  22.4668264
  52.2147512  16.4840758  22.8802347  67.7074718  66.7954588  38.9543653
  66.9646263  66.1934566  38.9095640  68.2132721  66.4959335  39.7097969
  76.1761761  42.9639816  56.9141626  76.3728380  42.9190969  55.9784603
  76.0062027  42.0565557  57.1669817  42.2452593  24.2483974   7.9786670
  41.4275551  24.7274828   7.8442323  42.1473837  23.8448071   8.8410866
  30.1381946  56.0073757  60.1766348  29.9176955  55.5036688  60.9601498
  29.3434286  55.9816074  59.6437979  42.8916931  76.2784576  54.0427446
  42.8222704  75.3246546  54.0836287  42.4822187  76.5129280  53.2099295
  49.6078253  10.2296376  43.0221605  50.4526806  10.6780028  42.9844666
  49.6663952   9.5513862  42.3492718  72.2482300  76.8602896  32.0122766
  71.8489218  75.9903669  32.0090652  71.5578699  77.4418926  31.6938853
  72.2380257  69.9032307   8.4575200  71.8269873  70.7156754   8.1622040
  72.6928186  70.1444626   9.2644900  57.2393656  12.6510870   2.7301648
  58.1714201  12.4697840   2.8511336  56.8237114  12.3060107   3.5203460
  51.3554668  44.3028927   8.4773380  52.2755432  44.2647886   8.2161069
  51.0817814  45.1942539   8.2609987  65.9039164  74.0090990  50.5240107
  66.2430334  73.9333773  51.4159203  65.7177782  74.9418974  50.4169321
  42.7416992  30.2877235  25.8915496  42.3211908  29.7502947  26.5628004
  43.1580830  29.6560788  25.3051353  62.8609180  66.5433502  69.3149281
  62.3925543  67.3566389  69.1266870  62.6237106  66.3339520  70.2183199
  66.9125414  15.7093561   2.5278059  66.8306398  15.3973043   3.4289980
  66.1440897  15.3546190   2.0807350  32.5031257  28.5052180   4.3176752
  32.4447417  27.6884484   4.8133659  33.4414744  28.6866546   4.2646509
  76.2506676   2.2103682  45.2823591  76.6574478   2.7530554  44.6068954
  76.4088774   1.3112395  44.9946594  69.0850639  66.7350674  41.5025187
  68.5609388  67.4322844  41.8967438  69.9357128  66.8003082  41.9365311
   8.7918967   6.4472145  67.3931265   9.4837838   7.0989972  67.5058365
   8.5328805   6.5291417  66.4752865   9.6747017  58.9960003  26.2984610
  10.5145442  58.9302588  26.7529655   9.7509027  59.7890949  25.7679605
  57.7230978  57.6906061  43.2644367  57.0847988  58.4007359  43.1972075
  57.1940517  56.8929291  43.2717991  83.3792877  69.3211508  46.0289669
  84.2782879  69.2622471  45.7056284  83.0568409  70.1559877  45.6894016
  81.4038849  28.9953399  54.0621281  81.4746475  28.3709288  54.7841644
  80.5481339  28.8153887  53.6728525  15.3817976  61.1406326  25.8395505
  15.5201721  61.7442465  25.1096630  14.4657636  60.8745861  25.7599711
  25.2595043  60.1624775  19.6244514  25.8541608  60.5983591  19.0140235
  25.8103728  59.9331427  20.3729033  10.6290603  74.5607710  45.6073904
  11.5002739  74.5232487  46.0021162  10.5280721  73.7157917  45.1691580
  19.5250893  32.9337502   5.7332402  18.8587511  33.6170769   5.8059698
  19.4504106  32.6213956   4.8315257  72.1673107  43.7892962  40.1551437
  71.8454933  44.2383099  40.9368420  72.5848150  42.9955578  40.4896688
  64.3969154  61.0160208  43.1174517  64.2710447  61.9083309  42.7946901
  64.6364117  60.5116510  42.3399687  14.1154122  50.7083178  67.6768541
  13.3081234  50.1941776  67.6900721  13.8567924  51.5687847  68.0069160
  79.6429729  70.8888960  54.7341251  78.9763498  71.0355091  55.4052067
  80.3231812  71.5340805  54.9272251   2.2963630  58.1962872  24.2972183
   3.0582470  58.4858656  24.7991252   1.5990786  58.1119871  24.9475408
  73.0395126  57.0130587  55.9115982  72.8737831  56.0803175  56.0485697
  73.8612080  57.1806240  56.3730907  20.1883459  65.1533604  13.8681328
  20.4769421  65.7106686  13.1453907  19.3525088  65.5306339  14.1424990
   7.1556753  43.0662298  65.2205801   6.9215626  42.1386576  65.1884890
   6.3197696  43.5268831  65.1478434  42.0688295   6.6108161  21.6673851
  41.1641359   6.9209629  21.7069888  42.1893501   6.3393521  20.7574320
  14.1598082  66.4242315  53.8433647  13.6809194  65.6140757  53.6685848
  13.4893477  67.0394564  54.1403723   2.2100604  29.2733097  43.7104511
   1.3823009  28.9471292  43.3573914   2.0635182  29.3257618  44.6549129
  76.5107536  57.5321579  35.6886530  76.2261581  57.8551912  34.8337317
  77.3653603  57.9406071  35.8266592  55.9702969  39.3285084  60.6492424
  56.0884476  39.0192938  59.7511005  56.8384218  39.6326399  60.9139967
  24.3293715  51.2533379  54.9580574  24.9239588  50.5223513  54.7896671
  23.5202217  50.8395767  55.2585745  70.0603580  56.1488438  61.0004759
  69.8047876  55.6244707  61.7593908  70.4845905  56.9209671  61.3747549
  23.6389828  55.5919027  25.2555323  24.0877771  56.1822510  25.8607626
  24.2247295  54.8389482  25.1768279  74.4282436  55.8470821  51.0477924
  75.2290154  55.3489256  50.8839941  74.7068596  56.5705824  51.6091776
  65.6006622  21.5577173   6.1850309  65.3424120  20.6738734   6.4464867
  64.8009491  21.9457054   5.8298469   0.5767472  71.3573980  20.6625152
   0.6006145  70.7147980  19.9534810   0.7615729  72.1933556  20.2344465
  77.5553465  25.7975483  55.1225471  77.2368240  26.3397789  54.4009113
  77.5153494  26.3704252  55.8883476  72.9928589  49.9837303  34.4845819
  73.4079981  50.8390570  34.3736506  72.5157166  50.0545025  35.3113580
   0.7624519  70.3853130  67.1476698   0.6162920  69.8994780  66.3359833
   1.5369183  69.9772787  67.5348902   5.1454371  56.7399025  32.3367620
   4.2520881  56.5011644  32.0894504   5.0491303  57.1926403  33.1746054
  20.5980182  78.1551886  15.2669525  20.3398490  78.4603071  16.1367130
  19.7711492  78.0362129  14.7996604  56.1097908  55.3953075  46.6955805
  55.5845642  54.6293449  46.4639091  55.6303358  56.1357689  46.3240051
  43.3545399  63.8359547  44.3519068  43.1231928  63.2396317  45.0640297
  43.2970142  63.2989693  43.5616112  49.5936346   9.7502971  21.2117314
  49.3310833  10.1140070  20.3661466  48.9816093   9.0300572  21.3630939
  74.3826342  19.8403871  60.2581263  75.0016165  20.5485916  60.4357147
  74.0945911  19.9940538  59.3583202  14.2309165  54.8141146  56.4096403
  14.6114552  55.1850796  57.2057629  14.7153735  54.0006065  56.2691689
  44.6833086  19.3239272  65.5237007  43.9873838  19.5980966  66.1209917
  45.2694893  18.7955356  66.0653925  72.1668673  45.3875446  42.6305723
  71.5532446  46.0973215  42.4410439  72.9946280  45.8301973  42.8179312
  20.2720737  60.4848003  49.0312672  20.8527064  61.0487366  48.5203218
  19.7974825  61.0865307  49.6047831  71.3005447  52.9674101  64.6451998
  71.0292768  52.0625687  64.7998142  72.1316433  52.8915215  64.1764307
  10.1189375   5.9949023  30.7852006   9.5073479   5.2788776  30.9569550
   9.6320552   6.5956217  30.2210069  46.3342619  51.9443846   8.8055962
  46.8758011  51.4064837   8.2279915  46.5095520  52.8438854   8.5291874
  62.0080423  42.2669077  54.0054417  61.4409494  43.0293417  54.1209126
  61.4050579  41.5251255  53.9564896  79.4444466  68.8627100  44.5440483
  79.4147301  67.9107046  44.6391010  80.3464985  69.0493917  44.2839003
  13.8530970  42.8287506  53.7787724  13.4802151  41.9884014  54.0452337
  14.7012985  42.6039410  53.3963490  51.3741636  20.8205724  12.6643991
  51.7375374  20.9286070  13.5433292  51.4204073  21.6946530  12.2770000
  58.5663366  47.3180771  66.3305521  58.9537096  46.4916706  66.6190481
  58.5887766  47.2723341  65.3747129   0.2424749  61.7857885  64.6489477
   0.8955701  61.5525579  63.9891768   0.0279744  62.6995373  64.4610929
   6.8693674  28.0536151  54.2536354   7.2905630  27.2210622  54.4673634
   6.1337709  27.8123260  53.6906910  67.8689432  52.3849821   9.1885126
  68.4657383  51.9062996   8.6132449  67.0825863  51.8403864   9.2244136
  68.9332771   8.9733779   9.2994648  68.7384319   8.4091687   8.5511774
  68.2655716   8.7501937   9.9479920   6.9769472  79.1753912  57.3187733
   6.3553393  78.4849262  57.5491953   7.8367496  78.7884855  57.4839306
   6.9235301  80.1841259  11.8902528   6.9848740  79.4188786  11.3185394
   7.3477727  80.8862305  11.3969970  76.8467522  56.5361166  63.2953215
  76.1532545  57.1066999  63.6265707  76.3927650  55.9098959  62.7314329
  11.7245662   4.3072689   5.8051437  11.1819851   4.2971602   6.5936464
  12.0863819   3.4226793   5.7520199  42.0601368  58.0638838   3.3050635
  41.7921829  58.3936739   2.4473509  42.5069284  57.2388411   3.1155476
  73.8637543  37.4547720  50.9746265  74.5463943  37.7753901  51.5640640
  73.7590361  38.1523013  50.3275442   5.1275611  44.3457270  47.4047613
   5.7394314  43.7151480  47.7845240   4.3638101  44.3152046  47.9809427
  73.8454342  38.8788438  41.3200855  74.6227455  38.3905101  41.5912914
  73.2530165  38.2122278  40.9723806   7.4945027  65.6610537  36.9711208
   7.1319848  64.7751665  36.9665384   6.9051409  66.1580849  37.5384307
  24.0734005  48.2308435  70.3460407  24.5220280  48.6183739  69.5945168
  24.3882966  48.7326765  71.0978603   7.6314139  12.4546146  65.5420780
   7.5029749  13.4017050  65.5945778   6.9784784  12.0908523  66.1400604
  83.3081150  57.5648069  25.9584951  84.0551567  57.6312780  26.5532637
  83.0347252  56.6494608  26.0187078  75.3629780  64.1980791  43.2714844
  75.0582790  63.7089014  42.5072241  75.2138090  65.1157093  43.0435896
  67.5892925  67.1307421  45.0702286  67.8026676  67.9731369  44.6688843
  68.1781387  67.0677137  45.8222389  38.7758088  49.3806982  32.9557228
  38.6925459  48.7387609  33.6608577  39.1747904  48.8939142  32.2345519
  53.7387419  68.9867496  47.0876741  54.6014786  68.5741949  47.1290779
  53.4480429  68.8441467  46.1869049  35.0855851  79.9463749  45.0039291
  34.8013186  80.5482578  45.6918001  34.5921707  79.1430569  45.1696301
  84.7216129  55.1932335  68.5825253  84.9470425  56.0640621  68.2552958
  84.5501518  54.6781206  67.7941799   2.1823774  67.2773790  70.6238270
   1.7685828  66.5546083  70.1520109   1.5864617  68.0162382  70.5005264
   6.0586554  78.5358381  65.7759571   5.1862574  78.8903999  65.9475470
   5.9854734  77.6056957  65.9897566  28.3268404  41.3518953  52.8282547
  27.4828744  41.7047644  53.1100941  28.9058018  41.4878464  53.5782909
  35.0118876  34.0458894   8.2796729  35.5029345  34.2465687   7.4829078
  34.0940380  34.0788937   8.0100548  42.5707626  17.0305729  16.3433683
  42.3484468  17.3732746  15.4777098  43.5267019  16.9814754  16.3432705
  85.6708813  69.1450024  44.6923685  86.2552452  69.7825718  44.2821884
  85.1439571  68.8035583  43.9698744  72.9852295  48.7470150  48.5572147
  73.1003618  48.5990620  47.6185560  73.3979464  47.9892254  48.9715242
  54.9669695  62.7921438  59.4530582  55.8036470  63.0828619  59.8159409
  54.4009542  63.5619879  59.5095587   7.3008156  78.5380316   2.4742824
   6.8483675  77.7298021   2.7157044   7.5193560  78.4231091   1.5494773
  13.6831534  75.8857012  14.4691479  13.6970294  74.9423027  14.3077791
  12.7573681  76.1236811  14.4189727  69.1228390  62.0913363  30.4664516
  68.7218285  62.1349144  31.3345075  69.9722576  62.5194836  30.5732512
   8.6424959  35.3666425  52.9637957   9.3240976  34.7023416  52.8620243
   9.0831625  36.0974932  53.3972740  59.2495823   4.4299695  18.6402678
  58.7368679   4.8733532  17.9644239  58.8246012   4.6745428  19.4623435
  85.2503014  54.6114826  31.7133045  85.4123878  54.2970657  32.6027441
  84.3255711  54.4203854  31.5565109  10.9220970  45.6987476  65.3922415
  10.4961526  44.9732733  64.9356318  10.2053595  46.1642933  65.8232689
  28.4800649  44.1181898  36.1068082  28.6098194  45.0635481  36.1822724
  27.9807711  44.0088081  35.2975035  30.0273991  14.9361861   5.3134072
  29.8454762  14.2441559   4.6776161  29.1831541  15.3672278   5.4463983
  57.8579807  30.9474277  55.2803993  57.4465752  30.8417320  54.4226074
  57.2258711  30.5771208  55.8964634   4.1325742  43.7930202  42.2390747
   4.0052000  43.2081270  41.4921474   3.5932392  43.4152555  42.9338026
  85.9580517  54.1919899  56.0618687  85.8546352  53.8658571  56.9558334
  85.9268093  53.4067774  55.5153370  84.6923542  61.4465761  60.3832388
  84.5101166  62.3799706  60.2746058  83.8314724  61.0475397  60.5092621
  68.4829569  30.2840734  48.1796885  67.8069210  30.1014090  48.8322544
  68.0251551  30.2354026  47.3404741  38.1243825   0.0306551  22.7787852
  37.2234130  -0.1795620  22.5332379  38.3970523   0.6935826  22.1444273
  15.1908970  20.8275771  16.5525293  14.2925262  20.7915425  16.2241066
  15.7315028  20.5964494  15.7971764   8.3491790  28.0102396  58.3104467
   7.6975000  27.9862618  57.6097536   8.6363387  28.9228940  58.3393335
  63.6648798  24.2725277   9.0344185  62.9163504  23.6800003   8.9648014
  63.4739304  24.8103857   9.8028445  61.9264221  62.6148176   8.2017529
  61.6415787  61.8239164   7.7439684  62.2882891  63.1728268   7.5133395
  45.5033493  16.8129802  16.7085803  45.6540155  15.9495366  17.0932853
  45.9740448  16.7894304  15.8754396   5.6050032  43.6588430  58.6866331
   6.0305667  43.8339806  57.8473186   5.8899415  42.7753067  58.9198971
  77.5159359  79.4669819  50.4099035  77.5548458  80.4233646  50.4026461
  76.9325829  79.2454958  49.6840382  24.6382594  53.2311010  47.3758459
  25.4418898  53.6047506  47.7375031  24.9091053  52.3890114  47.0101118
  65.8580828  26.0316825  10.8955157  66.3460445  26.3079762  11.6712642
  66.3712072  25.3086495  10.5347347  12.7709699  35.1926827  34.5603514
  11.9850850  34.7030210  34.3177652  13.0819881  34.7661376  35.3588247
  38.3262324  17.9952586  49.8823595  37.9879594  17.6601362  50.7127190
  39.0366507  17.3958588  49.6537590  68.9237213  28.6571217  70.4529238
  69.4484377  29.1030812  69.7880793  68.9177084  29.2593074  71.1969423
  27.0608449  45.7266474  33.4396362  26.1040998  45.7517385  33.4551930
  27.2733665  44.8139238  33.2446980  71.1648417  26.1703110  65.5541801
  70.4052734  25.6624341  65.2689695  70.8351183  26.7123318  66.2709332
  57.6372671  45.1625538  18.7736940  57.0551586  45.8725643  18.5030138
  57.0657873  44.5452166  19.2303538  26.4700055  67.2189999  61.4897060
  25.9685612  67.8249836  62.0352030  27.2307682  66.9897079  62.0234680
  10.1940930  56.5977859  25.1310015   9.7119397  57.3442841  25.4866719
  10.7209325  56.9683170  24.4229221  58.4207582  73.9825916  50.0499821
  57.8750658  73.7520981  49.2981005  58.6162138  73.1448889  50.4698420
  78.3398771  65.2547836  43.6645842  78.3139515  64.5139456  43.0590153
  79.2364597  65.2588844  43.9997768  61.7101002  46.6489553  65.0616264
  62.0121717  47.3911428  64.5380449  61.3029003  46.0585737  64.4276953
   0.8892568  29.8216677   7.0752114   0.0525983  30.2826571   7.0141208
   0.6881936  28.9242625   6.8097430  70.9338474  46.6550159   4.9924490
  71.3100719  46.1225224   5.6932628  71.3573170  46.3359213   4.1955265
  22.1333456   5.1302201  57.2862339  21.6592097   4.3080789  57.4107838
  22.7229929   4.9578211  56.5521908  75.5315971  58.4244680  46.7889023
  75.2531433  59.1892815  46.2851572  74.7295380  58.1049013  47.2021914
   3.3675063  34.0469837  27.3412848   2.6479059  33.7945914  27.9198217
   3.1327355  33.6754918  26.4909267  65.8385324  39.7015882  15.9095490
  65.9969473  39.1141772  16.6485250  65.2781105  40.3903723  16.2669575
  81.1142445  75.4867840  49.0899944  80.5389595  76.2246275  48.8878298
  81.4198685  75.1804209  48.2362032  10.1062059  79.9699783   7.8828698
   9.3208319  79.4627905   7.6774824   9.8957556  80.8609962   7.6035470
  52.0402288   0.2257132  64.2260981  51.9440269   0.9428237  63.5994196
  51.3534069  -0.3961696  63.9857483  54.8646402   1.0049362  38.9770007
  54.6512318   0.5821319  38.1451797  54.6052742   1.9182077  38.8549495
   2.9982021  68.2974100  61.4050102   3.6554122  68.2781315  60.7093573
   3.3027616  68.9796257  62.0033932   1.9870210   1.4367956  53.9519644
   2.1487281   0.6960030  53.3677483   2.8362957   1.6120444  54.3572426
  70.9441566  35.4630160   9.9631339  70.7696676  34.8308444   9.2658943
  70.5703545  35.0629139  10.7482576  71.1619282  46.6689301  37.2130919
  71.2197065  47.3311234  37.9018521  71.7043066  47.0133734  36.5035748
  76.9420767  77.2534227  61.1558533  76.1319923  76.7506075  61.0712004
  77.3024130  76.9864702  62.0015049   8.0386269   2.8981966  17.0476162
   7.6372212   2.0995770  17.3901248   7.3137462   3.5193166  16.9769800
  18.4275043  16.5099466   0.4730494  19.1024005  16.5753722   1.1486732
  17.6511359  16.1999130   0.9392717  24.2572713  63.5953617  42.5457191
  23.8580656  63.8674593  43.3720541  24.1887450  62.6406288  42.5495434
  23.2712698  69.8500776  23.9031887  22.3276329  69.8928738  23.7484264
  23.3594847  69.3325996  24.7036028   7.0263493  34.7177672   5.7321930
   6.3913167  35.2612185   5.2656883   6.6614050  33.8338399   5.6906945
  64.4351292  33.2188582  10.0786257  65.3176069  33.5699749  10.1977181
  64.3560505  33.0850196   9.1341335  72.7829456  24.8212767  37.6422858
  73.4638357  25.4885530  37.7280855  73.1204796  24.2184639  36.9797778
  54.0694952  15.5746126   4.7599733  53.7149096  16.3837767   5.1284248
  54.4698048  15.1272225   5.5055106  12.2786331  15.7747054  45.7517004
  12.3775828  14.8256850  45.8278656  11.9124329  16.0456622  46.5935516
  76.8771076  58.7427950  24.6440554  77.4191523  59.1054440  25.3446984
  77.4359560  58.0900335  24.2223597  74.7802591  59.2656898  33.8628173
  75.2585316  59.2698479  33.0336785  73.9894104  59.7750187  33.6856937
   4.3203309  60.1993036  50.5548906   5.0582743  60.7332468  50.8491325
   4.6097657  59.8295736  49.7207689  35.1777458  25.2913380   4.7665051
  35.8683085  25.3516197   4.1064128  35.1933575  24.3761611   5.0465763
  84.9066448  33.0876446  50.1858616  84.7954750  33.1650996  51.1334276
  85.7263756  33.5466385  50.0025654  24.8594642   5.5009145  56.3833332
  24.7944140   5.7809538  57.2963381  25.2406502   4.6240431  56.4283419
   5.3556848  72.6421595  62.8831148   6.2138653  72.4644613  62.4981689
   5.4365987  72.3537064  63.7922239   1.7693390  64.0094137  47.9125786
   1.5028121  63.1598234  48.2638502   1.1509545  64.6316147  48.2955885
  73.6048985  28.7234545   1.4483760  74.3771219  28.2415771   1.1522347
  72.9105711  28.4568357   0.8458360  70.3060293  38.9163089   5.5169618
  70.8984137  39.3086195   6.1583674  70.1121521  39.6259451   4.9045417
  64.8298264  63.3990765  30.9002852  65.2106047  62.8094721  30.2494335
  64.3972349  62.8179455  31.5258908  17.8225267  70.6967783  65.8082676
  17.5180638  70.9805155  66.6702557  18.2973695  69.8831415  65.9778404
  67.1979475   3.6821923  61.2022829  66.8571186   4.2060190  61.9273186
  66.6039038   3.8654402  60.4744339  51.4969349   0.2448025  52.1732998
  50.6120205   0.4389029  52.4822998  52.0449209   0.3180118  52.9547024
  13.9417052  14.5454454  54.0377092  14.4431305  14.7858024  54.8168325
  13.1066775  15.0020635  54.1399908  68.0751133   0.2094275   9.9405235
  68.4033775   0.4370659   9.0706646  67.1689034   0.5176698   9.9427670
  71.8097091  40.0011347  -0.0218017  71.5280676  39.4092367   0.6757395
  72.2175061  40.7354258   0.4372685  44.3473959  78.8970804  67.7443457
  44.1481590  78.2008266  68.3702564  43.9193344  78.6204720  66.9341087
  11.4244604  58.6463833  63.2707357  12.1521425  59.1513729  62.9078341
  11.5300608  57.7715588  62.8968906  49.6766186  17.9543591  32.1934199
  50.3329706  18.2631481  31.5688562  50.1073408  17.2371709  32.6585579
  15.0765944  77.8464174  50.9517765  15.0621271  78.0682373  51.8828106
  14.5709991  78.5423279  50.5318785  19.4464171  78.5147953  52.5156355
  19.6445286  78.4772110  51.5799189  19.3578136  77.5987244  52.7786875
  13.9502740  70.7219553  66.2503719  14.2889452  71.6145515  66.1810350
  13.7911928  70.4551363  65.3449821  16.9193625   3.7609410  43.8351870
  17.5625098   3.0525035  43.8085651  16.0852373   3.3347052  43.6382341
  13.7664545   5.0793463  58.1588268  14.3092203   5.3393412  58.9031649
  14.3929815   4.7960159  57.4929285  81.2807083  50.7933617  69.8531437
  81.8248272  50.0563002  70.1304722  81.1438084  51.3036680  70.6513119
  17.3407722  35.7451892  42.9813290  18.2535207  35.9527874  43.1813908
  16.9576025  36.5812516  42.7159739  78.5482025  21.2014008  22.9874849
  77.7434063  21.1072588  23.4970665  79.2287254  21.3600540  23.6416626
   9.6477145  72.0677280  57.2960615   9.8611450  72.1081209  56.3638353
   8.8166988  71.5940094  57.3312044  19.3922007  51.5597486  61.2655592
  18.4606969  51.5696001  61.0454798  19.4748294  50.8725882  61.9267797
  66.3420391  80.2800941  16.9122410  65.5762053  79.7083378  16.9653499
  67.0867825  79.6972990  17.0603585  53.4090662  11.6156185   2.4198900
  54.0973616  11.8461609   1.7959245  53.8400555  11.0370457   3.0489650
  37.4761343  46.3832521  13.8478374  37.1366787  45.5659199  13.4831917
  38.4240866  46.3227558  13.7296915  15.9934950  17.7000856  54.2624092
  15.8921587  18.4412622  54.8595858  15.8443761  16.9292307  54.8099327
  74.2287302  45.3297329  14.0051150  74.5805502  45.6676483  13.1815457
  73.7433052  46.0656071  14.3780541  76.5598822  76.8480396  56.6570568
  76.6824245  76.1804485  57.3319912  76.0075760  76.4252424  55.9994602
  37.3374605  39.7760606  67.6778793  37.5242257  40.0569391  66.7820787
  38.0407643  40.1606512  68.2010269  63.5375643  24.6169376  15.6335461
  63.0287838  24.3962598  14.8533714  63.2518530  23.9843512  16.2926602
  16.8248487  14.3011391  32.7541995  16.6388094  15.2395403  32.7222180
  16.0254025  13.9103591  33.1069160  44.3541574  76.9881058  30.8882856
  44.9812126  76.2935543  31.0898685  44.6993113  77.3998833  30.0961113
  14.0562642  11.4604723  30.6024647  14.6369755  12.1729863  30.8695436
  14.6422708  10.7202458  30.4446840  57.4564600  43.0596972  51.7464972
  57.3913431  42.1110630  51.6365910  56.8506002  43.2603073  52.4598885
  44.6747446  77.4775457  57.2313166  44.9362707  78.0208445  57.9747295
  45.0399733  77.9245567  56.4677572  63.2841110  28.9329934  51.9474316
  63.0453539  28.2178593  52.5371838  63.1343222  28.5802412  51.0702991
  26.4657187  64.6327543  27.2113609  27.0970678  65.0563478  27.7929091
  26.9951868  64.0506792  26.6663051  71.3691473   7.2292316  24.3718815
  72.1816635   7.6745045  24.6122527  71.1140156   6.7532760  25.1622009
  11.8529916  80.6903744  13.6991441  11.6904569  80.2524281  12.8636718
  11.1345804  81.3171005  13.7847900  21.3060069   7.8871745  24.0500259
  21.3812280   8.5664624  24.7202063  22.2064400   7.7306998  23.7654757
  60.0127554  71.6884661  24.0096927  59.2521143  72.1095037  23.6092067
  60.4618120  71.2613440  23.2802105  31.3101792  56.5957260  10.4669654
  30.8962393  56.1024952   9.7587198  32.1620393  56.8525267  10.1139510
  77.1494675  58.1359196  28.6437917  77.5860929  58.7547302  28.0584145
  76.3870716  58.6131525  28.9712644   3.7853447  80.3471661  23.9606762
   4.3063730  80.2022266  24.7504592   3.7351617  81.2994862  23.8782620
  40.5245543   3.1969887  39.1917825  39.8933721   3.0330494  38.4910965
  41.3750029   3.1986123  38.7525058  36.1407948  74.7301102  48.8680124
  36.1737585  74.8327160  47.9168987  36.5491056  75.5258512  49.2090559
  74.4685984  18.2338691  52.6206446  74.9636650  17.4634969  52.8993416
  75.0826597  18.9615643  52.7187300  18.6884701   5.6216794  42.8139830
  19.2050111   4.8997417  43.1720638  17.9535270   5.7141000  43.4202433
  56.5671396  24.2104864  40.1783991  57.1859169  24.3378711  40.8975077
  55.7268476  24.0560222  40.6100082  14.4142437  12.8448141  40.5520010
  14.2709148  13.2003736  39.6749234  14.9683619  13.4936213  40.9858608
  31.4880443  79.2650700  50.5274248  31.3555717  78.7473869  51.3215828
  32.4225307  79.4723368  50.5297327  22.8658891  66.6982460  29.1038775
  23.3806539  67.4597168  29.3711138  22.5813913  66.3006830  29.9268198
  83.5693932  68.2493591  62.3146677  84.1233444  69.0209389  62.1962023
  82.9759502  68.2629967  61.5637541  41.2938499  61.1503267  31.8306160
  40.8882999  60.8227921  32.6334143  42.1453905  60.7144356  31.7973709
  43.6364794  22.0107126  30.5859733  44.3920994  22.5346851  30.8519149
  42.9749441  22.1877360  31.2547493   9.2152870  62.5599623  34.0688109
   9.1235143  62.9416990  33.1958342  10.1577485  62.5681543  34.2359352
  61.7889738   9.1043943  34.5325494  62.2832727   9.2878950  33.7336564
  60.9403276   8.7888575  34.2219615  66.0277843  23.3556223  16.7216802
  65.6148243  24.0851641  16.2596619  65.5913353  22.5763416  16.3774908
  24.0244913  49.4413280  15.8993638  23.5856366  49.3779278  16.7476678
  23.3676767  49.1488886  15.2674580  71.8938923  27.3002434  35.2309847
  71.6140604  28.2149887  35.1968479  72.5077868  27.2647882  35.9645462
  43.8032579  35.7910061  47.9497147  44.6274137  36.2775612  47.9658556
  43.6956167  35.4724097  48.8458920  32.9540849  14.7782409  36.3784003
  32.0204711  14.6697688  36.1972070  33.1807876  15.6157696  35.9741902
  76.6906643  20.9048104   9.3311405  76.4419556  21.3798475   8.5382247
  75.8701897  20.7947683   9.8117059  62.6398706  19.0070164  59.5538616
  62.7749681  18.2902575  58.9339924  61.6985464  19.1775668  59.5213509
  27.4913692  67.4454737  45.3752375  26.7100692  67.5788164  45.9119129
  28.1446910  68.0343819  45.7528496  65.8301687  31.2138605  57.3847103
  65.0704718  30.8207679  56.9550943  65.9574032  32.0470428  56.9310045
  40.4227543  61.4819288  28.9351678  40.7729721  61.3192844  29.8110271
  40.1723003  60.6161499  28.6127877  21.5440965  68.1473875  42.4977493
  21.3079739  67.2222662  42.4297523  21.4333177  68.3552885  43.4255075
  61.5818691   0.3620842  62.9782534  61.5430832  -0.0811042  62.1307230
  60.8903456   1.0225131  62.9350519  13.5530639  74.8730564  29.3642783
  13.2701540  75.2372074  28.5254765  13.8333189  75.6337070  29.8732972
  54.4775438   4.4545040  17.1329296  53.7430239   4.5208383  16.5227568
  54.1910124   3.8139519  17.7839482  20.8930969  37.5139570   3.1123471
  20.2372503  37.9408622   2.5611192  21.3566160  38.2362819   3.5361746
  68.1072521  40.5360222  47.6540565  68.8571024  41.0516453  47.9508543
  67.7909040  40.0969791  48.4436131  79.0694761  70.7451200  33.1115174
  79.3962145  71.0105562  32.2518563  79.7425699  70.1559019  33.4521031
  83.2549763  26.5047622  39.3864608  83.0627251  25.6808233  38.9388013
  83.2907772  27.1555376  38.6854315  51.1972284  46.4838457  68.8112640
  51.7330599  47.0085716  69.4060612  50.2961922  46.7303514  69.0200710
  36.0213828  81.1029148   4.8636052  36.5707469  80.8829308   5.6159592
  36.3561773  81.9471550   4.5612702   5.8946872  12.6502562  27.3090339
   6.8181866  12.4335682  27.1808648   5.5763936  11.9885445  27.9230833
  60.0913000  14.4242764  43.6442232  60.6330061  14.7029018  42.9058743
  59.5622969  13.7066495  43.2958031  40.6244183  71.3479042  25.2309775
  40.6369638  71.7670107  26.0914564  39.6991801  71.1656809  25.0667858
  74.8828697   0.8702368  57.6906061  75.5903006   1.0126615  57.0617294
  74.1318846   0.6181565  57.1532869  62.5789595  20.9540868  29.2670822
  63.1616116  21.3341951  29.9245501  63.0394936  21.0800076  28.4374523
  72.7226496  10.5490720  27.4347520  72.7150059  11.2219930  26.7540550
  72.8858805   9.7325951  26.9625711   7.4730968  74.0195370  23.7827682
   7.7510512  73.9140987  22.8729010   6.5168011  74.0266275  23.7417793
  69.1624022  42.8414059  49.3560934  68.2410240  42.9127979  49.1066980
  69.1498375  42.3621559  50.1845837  28.3278489  64.6443796  48.5428619
  27.3977351  64.7001028  48.3237314  28.3465552  64.2248201  49.4030046
  11.2734377  46.1317539   7.3536307  11.2245786  47.0251989   7.0136225
  10.4328036  45.9954977   7.7906650  23.5144138  78.5507870  62.6275873
  24.4318557  78.5115004  62.8977489  23.4353566  77.8794956  61.9498348
  84.9187660  41.0639477  64.1039848  84.0551662  41.3488436  64.4027233
  84.7448730  40.5763578  63.2988453  83.7955952  36.8932486  68.3600092
  83.5975838  36.7878771  67.4294615  84.0023804  37.8227878  68.4571218
  75.9466934  17.3428428   0.9342621  75.8536482  18.0843854   0.3361919
  75.8844328  16.5714967   0.3708958  41.2234783   6.2510073  61.2620401
  41.6245317   5.6771374  60.6093073  41.4398956   7.1359241  60.9682465
   2.0642796  25.2750111  38.7237382   1.8424067  25.7201409  39.5415783
   1.4823268  25.6665897  38.0724096  29.8237824   7.3963886  62.4058867
  30.0487566   8.2763326  62.1037006  29.6760798   6.8976605  61.6023397
  86.4625627  57.8994846  10.7535958  86.4514432  57.3979092   9.9384087
  86.6355536  58.7998343  10.4784989  27.2306275  49.3248415  16.5059245
  26.8042469  50.1015854  16.1438453  27.3019052  49.5057106  17.4431741
  67.4271822  37.4463367  45.7071733  67.5832939  37.2085214  46.6211224
  66.4874983  37.3135567  45.5822802  71.2147522  10.8030808   9.4029683
  70.4364347  10.3073263   9.1486329  71.8697214  10.1344371   9.6033806
   9.3792933  56.5514278  61.1283016  10.0416470  55.9521437  61.4723635
   8.5456908  56.1188507  61.3132715  68.8178062  60.5327606  54.2347622
  69.5563126  60.5229139  53.6258793  68.9947367  61.2740660  54.8138952
  16.2586582   6.2061483  11.6026437  15.6515789   6.7542487  12.0999098
  15.9130013   6.2147993  10.7100761  79.1280985   3.5060012  59.3171310
  78.3579731   3.3267924  59.8565960  78.9143515   4.3174380  58.8565731
  60.3696537  36.6881824  57.2664547  61.0549545  36.8270946  57.9201365
  60.0525141  37.5677109  57.0613050  69.9268532  34.9494338   0.1318092
  69.3206453  35.1560640   0.8431794  70.1795435  34.0396905   0.2891148
  84.8939705  70.2507782  69.9223757  84.8406792  69.7242260  69.1247988
  84.5445251  71.1051655  69.6691132   1.2402048  61.5096951   6.0692734
   1.4458208  61.5571547   7.0029229   1.0651962  62.4160910   5.8161891
  50.0482416  79.5609379  22.9588270  50.6978273  80.0293064  23.4831429
  50.5594444  78.9305925  22.4513149   0.7563484  40.6898117  14.6906269
   1.0242099  39.8637700  15.0932872   1.5128532  41.2659836  14.8000002
  33.5717297  81.2391090  36.5784216  32.8497195  81.6207790  37.0776820
  34.0522313  80.7121754  37.2169256  60.8506298  20.3152704  46.4181757
  60.5243158  21.0375667  46.9548702  60.2781391  20.3092170  45.6510735
   0.9518461  33.3000731  54.3790817   1.7782101  33.6483932  54.7137833
   0.3488514  33.3604741  55.1200104  42.2393560  77.7529049   5.9864300
  42.0336342  78.3752298   5.2888453  41.4596081  77.7490616   6.5415990
  43.4620428  22.1137261  18.1080902  43.4459352  22.0307469  17.1546292
  43.2855320  21.2291861  18.4285033  59.9127197  45.8233595  10.7102156
  59.6854639  45.7027054  11.6321874  59.8164940  46.7639351  10.5609190
  79.5133400  34.2391729  26.9286656  79.7817802  34.9770021  26.3811469
  79.7598124  34.4977593  27.8167057  23.5353231  75.8769131  51.6116381
  23.5327768  76.8337154  51.5842390  23.6705565  75.6641006  52.5350332
  60.0693846  22.5679517  47.6416397  59.6125269  23.1755185  48.2233381
  60.0275326  22.9836702  46.7804432  39.7543573  61.0072899  34.4731808
  39.1241431  61.6076756  34.0749311  40.0808239  61.4771509  35.2405691
  44.4401169   4.4851130  43.2581520  44.8271751   4.4424054  42.3837423
  44.2559481   5.4146379  43.3934212  63.6154079  12.2381651  50.4072094
  63.9875650  12.6297319  49.6170139  63.5583162  11.3037860  50.2074385
  19.7659969   1.9607793  19.8443711  18.9026582   2.1975049  20.1832509
  20.1704144   1.4565618  20.5503750  59.9493313  18.6484611  17.3815882
  59.3269062  17.9301488  17.4949288  59.4010210  19.4242096  17.2641194
   5.7023793  32.0208645  54.6194363   5.0981688  31.6230249  55.2462435
   5.3308570  31.8112946  53.7625313  73.0709982  13.2495487  16.6655552
  73.5670567  14.0313971  16.9081831  72.3835850  13.5731423  16.0833299
  55.2018261   9.9257153  54.7365904  55.7753706  10.5036998  54.2333841
  55.3331137   9.0607196  54.3482876  13.3813679   5.5635208  37.5451541
  12.9335082   5.8946311  36.7666817  14.3046081   5.5307746  37.2945833
  61.7036533  24.6656418  55.6697178  61.4014101  25.2273679  56.3834000
  61.6290092  23.7766314  56.0165882   5.0202334  61.6939116  23.4793615
   5.4709625  61.5437603  24.3103433   5.5444813  61.2203026  22.8335357
  81.5051842  16.0928845  24.6099687  81.2548256  16.9835925  24.8553061
  82.4087048  16.1736155  24.3044233  37.5816154  13.9226413  39.7730541
  36.7369509  13.4739161  39.7354031  37.3570156  14.8490298  39.8601675
  53.5003567   1.7820735  28.5276055  53.2976770   1.3570359  29.3609715
  53.9496422   2.5905353  28.7741089  24.0430893   0.2329254   7.9288656
  24.0914406   0.6209183   8.8025695  23.3806195  -0.4534531   8.0079287
  64.5402002  21.8710971  69.7142696  63.6440706  21.8864536  70.0503397
  64.6075344  21.0368824  69.2497444  50.3486013  80.1308250  41.7419147
  50.2869558  80.1413918  42.6970673  50.1970005  79.2166042  41.5022182
  78.5857773  38.4435487  50.8372307  79.0287018  38.8530707  50.0940275
  79.2687082  38.3505201  51.5014458  55.9934711  79.4084454  55.8832073
  55.1569319  78.9569235  55.9952497  55.7534838  80.3212261  55.7236195
  76.5865564  76.5033579  49.9031401  76.0115719  75.7469177  50.0189590
  76.4926910  76.7363644  48.9794922  57.3207808  11.5815020  24.6412086
  57.9435396  12.2332501  24.3192959  57.3164749  11.7028177  25.5906796
  69.1729689   2.7972761  14.5858324  69.2014217   3.5337013  15.1966524
  70.0359774   2.3901235  14.6611726  74.5130587  43.6469316  32.4775648
  74.1439676  42.8338528  32.8224015  75.1048183  43.9519596  33.1653237
   8.7639165  34.6693325  58.8236761   7.8929108  34.9532986  58.5462856
   8.9994758  33.9790154  58.2038307  32.5585580  52.8004932   2.4762993
  33.2398415  52.2257280   2.8251916  31.7649841  52.2653723   2.4872424
  61.3570690  24.5064139  63.7110233  61.2307930  24.1356754  64.5844269
  60.6157303  25.1004100  63.5934830  56.3483334   3.6392814  44.8222589
  55.9223366   3.5332599  43.9716625  57.2481203   3.8875803  44.6102095
   7.1923649   6.2728518  50.3702879   7.7970338   6.4546293  51.0897064
   6.6821367   5.5206788  50.6705141  40.3166580  72.4089766  27.6327443
  39.5191407  71.9184589  27.8317046  40.5791426  72.7895594  28.4708905
  66.8577528  17.0131683   6.7097408  66.9240427  17.5245094   7.5161946
  67.2815847  17.5570107   6.0457885  24.2131615  33.7525344   6.7335373
  24.0059733  34.6851110   6.7936033  23.3755517  33.3114743   6.8753362
   5.8905423   9.2968619  32.8793669   5.1422220   9.7230333  33.2972479
   5.8849376   8.4059376  33.2293010  53.9095926   8.3268356  63.3328438
  54.7198582   8.3140284  63.8423014  53.8667107   9.2129087  62.9733086
  23.5981822  78.3606291  44.5131731  24.3228149  78.4489965  45.1323080
  23.0737305  79.1506147  44.6439457  72.4300194  25.6219959  22.1103072
  72.7034283  25.5335522  23.0233550  73.0950880  26.1853290  21.7146254
  50.2726507  76.2596941  30.1700044  49.3677187  75.9539318  30.1080823
  50.5799723  75.9290123  31.0140634  50.4039621  26.8924046  70.0313902
  50.7321453  26.6425228  70.8951521  49.4840717  26.6278648  70.0389481
  77.1799183  31.6430211  67.6286459  76.2467194  31.6400814  67.4156570
  77.2422075  32.1706557  68.4248590  41.6534758  59.7629642  35.7614255
  40.8673286  59.7944593  35.2162528  42.1335602  60.5597067  35.5356956
  37.2427416  77.8875303  34.4807744  37.4227142  77.7063656  35.4032826
  36.5294838  77.2907400  34.2542052  31.3902640  76.1030722  49.2145300
  32.0141935  76.6976118  49.6310234  31.4621568  76.2967587  48.2798910
  75.0071335  10.2910769  59.2396212  75.2136517  10.3778780  58.3090067
  74.5857668  11.1191726  59.4697046   8.7115473  18.2961643  29.1571450
   7.8655988  18.2219625  29.5988441   9.1918927  17.5132704  29.4265461
  10.0581741   6.6914880  59.5024776  10.0121784   6.6219282  58.5489178
   9.1444480   6.7407775  59.7833824  43.1845284  30.8181477  49.4179773
  42.6908255  30.3211737  50.0702906  42.7058315  31.6426182  49.3323565
  16.1101651  70.9784460  38.4809828  16.5046811  71.2724543  37.6599193
  15.9972465  71.7794180  38.9927649  59.8618793  21.0837412  28.9333105
  59.6999359  21.4262176  29.8123550  60.8039379  20.9155583  28.9115787
  81.5998650  76.1158466   3.7727091  80.6818104  75.8685923   3.8835147
  81.6966534  76.2620020   2.8316975  57.0504570  79.3403530   6.9219899
  57.0156384  79.9090242   7.6911640  57.9392672  79.4491291   6.5837407
  29.3465114  79.4138336  62.5365925  30.2982974  79.4261932  62.6375055
  29.0322471  80.0807381  63.1470966  20.8148813  76.1234665  45.9683418
  20.9076166  76.9254971  46.4825201  20.2334785  76.3667154  45.2479029
  66.3180399   8.0538630  49.8479176  66.4432812   7.3967481  50.5325699
  65.4131603   8.3456862  49.9586725  56.0607529  43.6037302  20.4635763
  55.4633522  44.1127729  21.0114980  56.0526466  42.7279949  20.8499122
  63.1489372  26.4044952  11.5036631  63.1238222  26.5942001  12.4415398
  64.0630531  26.5428758  11.2557077  18.6826110  28.4012032  24.0665722
  18.3756673  29.2882466  24.2541099  17.8910780  27.8635430  24.0916872
  74.4224930  45.9068441   0.6506808  74.4988108  45.0805902   1.1278692
  75.3260565  46.2005138   0.5342203  80.5878639  10.5525577  48.3746386
  80.7742310  10.0433004  47.5858688  79.6916056  10.3117037  48.6090374
  31.7019057   0.8934341  61.9829369  32.0004392   1.6694014  62.4572611
  31.5584016   0.2366742  62.6643372  12.8438890  61.9329548  28.8698745
  12.0327091  61.6602564  28.4410906  12.7046037  61.7326260  29.7954559
  68.7680435  46.6956615  54.9961233  69.1086292  47.5710869  54.8120928
  68.5489750  46.7148447  55.9277201  78.6255789  50.8356142   5.0708336
  78.7942123  50.0593948   5.6049514  77.6729059  50.9283495   5.0771463
  50.9244871  29.7941780  52.7601862  50.8867073  30.1127958  51.8583632
  51.8324900  29.9375606  53.0270243  68.4715986   9.4720089  58.6547852
  69.3173790   9.2950964  58.2429695  68.2326555   8.6461186  59.0755463
  41.2592411  47.1211576  22.3892379  41.7780399  47.0221472  23.1875348
  40.3547478  46.9896650  22.6735568  39.9796987  75.0748301  56.1999941
  39.5201159  74.5679903  56.8694162  40.7829237  75.3675175  56.6305637
  27.1883202  72.9569817  20.3665137  27.4315548  73.4021950  21.1782122
  28.0206752  72.8003788  19.9205399  66.3721800  26.8231177  51.9869137
  67.2741842  27.1427131  52.0087719  66.0003614  27.0978332  52.8250742
  55.5404806  36.7759204  48.4166431  54.8954821  37.4722505  48.2928085
  55.2485323  36.0730243  47.8361845  77.1668386  15.3677309  55.6440115
  76.5460873  14.6728182  55.8630991  78.0155182  15.0296307  55.9297800
  70.6335545   7.9241425  31.5081573  70.0998259   8.4045643  30.8752584
  70.5870199   8.4484559  32.3076344  76.1305714  20.9365392  27.8545451
  75.2781963  20.6172776  28.1507802  75.9737396  21.8494487  27.6132345
  40.6271982  49.1376591  28.3119631  40.4515982  50.0683689  28.4504437
  40.8821583  48.8110495  29.1748357  15.8259273  38.9334512  39.9371076
  14.9973226  38.4611773  39.8558450  16.2618458  38.7988615  39.0956259
  50.7231712  15.5978453  48.6047697  50.4535627  14.7305620  48.3025026
  51.6305971  15.6821346  48.3120155  37.5113058  21.6583252  69.4658518
  37.3605108  21.8791413  68.5467577  38.1683612  22.2895789  69.7591543
  55.0359488  52.7450705  39.9746513  54.1571188  52.4851513  39.6983695
  55.4943609  52.9447508  39.1584301  16.5532219  66.1025238   0.5150757
  17.3497581  65.9120607   0.0196089  16.4388347  65.3427553   1.0859556
  79.2282391   7.4594665  10.1918590  78.7811947   7.6853502   9.3761629
  80.0679684   7.9158658  10.1390934  28.8283205  71.7107821  62.8351212
  27.9294896  71.6294622  63.1540585  28.7786388  71.4606571  61.9125128
   4.0653911  14.4209290  30.3648329   3.6384827  13.8073754  29.7668934
   3.8867110  15.2836287  29.9905944  43.3384895  78.6134768  25.0597763
  43.8883352  78.1065083  25.6571746  43.8337708  78.6380959  24.2410445
  68.3418751   9.5151591  30.3503180  68.6097527  10.1033163  31.0563946
  68.0114841  10.0972831  29.6660638  10.2115011  40.2882385  62.9184914
  10.3583622  39.4259405  63.3072138   9.4101274  40.6053734  63.3349705
  84.2218304  31.2376642  44.2419815  84.7939110  30.6201124  43.7863636
  84.1585541  30.8930898  45.1327610  39.1293812  76.8427324  32.7726030
  38.5965109  76.7428064  31.9837475  38.5861731  77.3634720  33.3642006
  23.3879924  49.1956758  43.4611845  24.1021991  48.5840178  43.2822609
  22.9537106  49.3106508  42.6159573  69.3504095  27.2193360  67.6777601
  69.3840313  26.7015266  68.4821081  70.0391626  27.8751612  67.7861404
  49.9924231   6.9635457  30.4722047  49.8590374   7.9047799  30.3603196
  50.8141232   6.7821842  30.0159740  64.4128656  46.2508392  32.0709038
  64.5693731  47.1280336  31.7212343  64.0879774  45.7493591  31.3231087
   0.8723309  41.1762428  38.4530258   0.2702909  41.9167089  38.3789325
   0.3482210  40.4801416  38.8492393  52.1846008   5.2617884  39.2145848
  52.6756096   6.0685229  39.3705320  52.7930021   4.7001392  38.7343454
   2.4514358   2.6832724  51.6756535   2.0263283   2.3493515  52.4655962
   1.8552163   2.4474902  50.9649086  67.1576452  18.5278368  32.0873189
  66.8976307  19.3762147  31.7283249  67.3185396  18.6995292  33.0151486
  85.0687790  32.2667909  26.8659759  85.4572868  33.0972648  26.5910077
  85.5097389  31.6071653  26.3305473  58.1811476  12.8930867  60.8176136
  58.2276440  12.0804846  60.3138828  57.8461695  12.6255238  61.6734362
  53.8030958  15.1965618  20.3920412  53.0604172  15.7486272  20.6367540
  53.4116888  14.3497562  20.1776767  62.5084734  10.3529406  38.3803511
  62.6857090  11.0948265  37.8020573  63.0469942   9.6429086  38.0309510
  64.5128012  35.6794143   1.1261065  65.3369284  36.0339594   0.7924339
  64.6953964  35.4705048   2.0422105  66.9350767  34.0989137  10.6950438
  67.4461412  34.8718619  10.9350443  67.0904303  33.4784698  11.4071846
  84.0093231  15.5203986  25.6734324  84.5791245  16.2868750  25.6096768
  84.6030140  14.7735214  25.5964446  76.3570738  66.5449476  69.4244051
  76.5351105  66.6002417  70.3632784  76.3741446  65.6073999  69.2321968
  79.7976780  37.3934674   2.2303322  79.8023224  36.9142604   3.0589277
  78.9286041  37.2299957   1.8639743  53.4292173   0.4224601  54.3559837
  52.9434013   0.0278609  55.0802088  54.2590714   0.6973463  54.7458649
  71.4912224  15.0987756  39.7460365  72.4335957  15.2665281  39.7504973
  71.4145088  14.1587043  39.9091673  12.5892735  20.1142097  50.4407072
  13.3403730  19.7782075  50.9297705  12.3327053  20.9074712  50.9109592
  38.1370544  70.5757141  24.7671604  37.8296185  69.9101877  25.3826189
  37.9925728  70.1885080  23.9037776  20.9889269  28.4655619  20.6351185
  21.0524440  29.3849707  20.3764963  20.0902581  28.2173085  20.4183292
  71.3558435   1.5334609  22.0920682  71.4133406   0.5886942  22.2346926
  72.0720100   1.8981975  22.6119757  11.8664742  77.7181149  30.3723955
  12.0653248  77.7517653  31.3081074  11.4067483  76.8867970  30.2549744
  74.1269588  66.2306643  34.4796443  73.9175749  66.9671822  33.9052486
  74.1100025  65.4658651  33.9042950  31.4437175  31.3680887  24.9122190
  30.8548975  31.0748267  25.6075740  31.2519717  32.3006725  24.8134589
  67.9178238  26.3093448  49.2633247  67.8511429  25.3607750  49.1537809
  67.0291853  26.6310430  49.1114521  39.5068979  73.9164829  63.0880642
  39.3015289  73.1250668  63.5857725  40.3856945  74.1607094  63.3784056
  59.8468208  70.9186077  46.8956804  60.7381535  70.8920860  47.2436047
  59.6586895  71.8511438  46.7897844  19.0914786  51.9498014   3.7568924
  18.7849879  52.2592545   2.9045236  19.4882202  51.0981131   3.5739943
  65.6477976  10.9334004  47.6944065  66.1976099  10.6797647  48.4357643
  64.7645473  10.6662047  47.9487944   5.0197768  22.0725322  63.8410616
   5.4613340  22.8607488  63.5248756   5.7005507  21.5873194  64.3072653
   3.6763573  43.9165878  38.4748244   3.0520311  43.4466648  37.9219937
   4.3421420  43.2641363  38.6922407  68.1031561  16.0750449  50.6481552
  67.6327324  16.8024349  50.2409267  68.7764215  15.8381867  50.0103092
   6.4539796  10.6681108  39.6595335   7.1937156  10.9789956  39.1376400
   6.7324704   9.8114401  39.9832463   1.4502463  67.2085238   2.3844355
   1.9989367  66.6692305   1.8149361   1.5801243  68.1018734   2.0661643
   6.4028358  76.4738417  42.2028542   5.8474416  77.1163273  42.6444197
   6.1001581  75.6281042  42.5335169  25.5816793  73.8901949  59.9973679
  25.7431030  73.6346912  59.0891314  25.0199246  73.1974220  60.3448343
  56.4601755  29.4376445  57.0983934  56.9671440  28.9813304  57.7699566
  55.5805159  29.5083475  57.4691153  78.6672354  30.9672499  63.9255428
  77.9019928  31.0072923  63.3519268  79.4148111  30.9650493  63.3277464
  58.1205797   2.8605783  34.8415589  59.0002823   2.5126925  34.9875927
  58.2260847   3.8102466  34.8983955  62.9997444  11.3349223   3.9096987
  62.7782154  10.4866660   4.2939106  62.6343918  11.9765294   4.5188692
  57.0991468   0.3675130  52.1337080  56.1852884   0.3448793  51.8498468
  57.0631838   0.6998955  53.0306292  78.3722973  17.2549379  34.6206307
  77.9890585  16.8185854  33.8597393  79.1758060  17.6548147  34.2879105
  66.9865036  12.0706832  31.2559199  66.8300629  12.7767873  30.6288838
  67.9387140  11.9752347  31.2764883  64.0866041  54.8140526  31.6546106
  64.6025181  54.0202761  31.7959690  63.6711264  54.6811056  30.8025932
  55.3644896  49.5876789  67.6486540  55.9816599  50.1024437  67.1287060
  55.9141397  48.9685249  68.1290340  71.1206675  18.1557631  57.7943707
  71.0655212  18.1585729  56.8387651  71.4034414  19.0418243  58.0205679
  44.9038363  78.8162661  28.5288692  45.0815868  78.2392120  27.7861404
  43.9502192  78.8970995  28.5465217  79.2131281  30.8649445  55.9152794
  78.3685112  30.5975223  55.5528736  79.8508978  30.6129217  55.2474737
  31.9995594  62.6129436  37.1779323  31.4729095  62.8621674  36.4184856
  31.3917375  62.1395111  37.7459526  84.2308903  44.0948296  15.6769502
  84.7214603  44.8677444  15.9565508  83.6987972  43.8608217  16.4374423
  52.9714489   9.0694141  34.0620065  52.0736885   8.9483321  34.3711948
  53.1130552  10.0152326  34.1020846  53.4162712   2.2581011   6.0621440
  54.0651178   2.9459846   5.9136516  53.9339066   1.4854425   6.2886006
   6.5266663  32.6181960  33.5039997   5.8569342  32.6296353  34.1877818
   7.3382092  32.4103379  33.9670610  75.9975195  46.4556742  65.4818916
  76.3063574  46.8346977  64.6589708  76.4769173  46.9319868  66.1597824
  42.4091673  29.4275665  62.7417231  41.7504168  29.1739559  63.3882189
  42.3923683  28.7232804  62.0937061  77.9851198  33.2201624  65.5246782
  78.2064581  32.4033380  65.0774193  77.4104643  32.9524302  66.2418413
  57.1325159  46.7265844  49.8564100  56.8247604  45.8421087  50.0544357
  57.5772238  46.6422176  49.0129948  58.4230995  24.4619131  28.1384754
  58.9960289  24.7991061  28.8271594  58.9957142  23.9221597  27.5934863
   9.3559349  45.1794863  18.6767244   9.7588557  45.6198168  17.9283965
   9.2631978  44.2687082  18.3972359  51.4673281  14.2920768  36.3661051
  51.1336040  14.8778403  35.6865931  50.6824303  13.9494705  36.7936397
  51.6007185  71.7456532  27.6195788  52.2978210  71.2294102  28.0242682
  50.8729124  71.1314440  27.5232482  86.0711956  17.4454212  10.2201581
  85.4919243  17.3612189   9.4628024  86.5365791  18.2692337  10.0753212
  68.0388308   8.0621916  35.2620530  68.6535168   7.4128306  34.9204087
  68.5632038   8.5989761  35.8562970  10.0361574  24.3213129  57.5402069
  10.7397640  24.9511170  57.3836327   9.9776047  24.2597342  58.4936285
  77.7336454  17.0086479   9.8479038  77.5493002  16.9209683  10.7830822
  77.4010706  16.1986351   9.4612479   4.1755974  13.1460798  65.2005672
   3.2602012  13.4256423  65.2118158   4.2964578  12.7565908  64.3345881
  71.4450216  34.3587255  63.8701153  71.3689661  35.3053546  63.7503719
  71.1889505  34.2111278  64.7805405  15.6957912  38.3302331  49.4335175
  16.5778935  38.5953236  49.1730309  15.5746961  38.7194014  50.2996111
  65.4735756  28.3788562  40.3977060  65.8537579  28.7207794  39.5885181
  65.9893227  27.5964189  40.5927229   1.3855468  55.2952623  14.0151584
   1.3434640  55.8192301  14.8151076   2.0301899  55.7443285  13.4683406
  81.0513592  33.7810779  67.3096848  81.4712620  33.2037807  66.6719961
  80.9860420  33.2522964  68.1048965  74.7265816  26.8960190  11.7811036
  74.1915703  27.6360273  12.0681322  75.2645588  26.6797519  12.5427079
  75.5989361  35.5485940  61.7984056  75.0020599  36.2967038  61.8157625
  76.4458179  35.9234333  61.5564966   1.6488090  71.5115881  30.0918198
   1.9178475  71.5518951  31.0095477   2.3638804  71.9317341  29.6139240
  18.9821935  38.4108090   8.6244208  18.9530838  37.8971696   9.4316137
  18.0772221  38.4184909   8.3126527  40.2949762  11.8354475  51.4309502
  40.8449602  11.7484093  52.2095203  40.2568197  12.7780437  51.2688160
  70.4527855  20.1268458  52.4603510  70.1232052  19.2595994  52.2247791
  70.5495167  20.5817008  51.6237020  79.6232080  30.7620692  68.4907436
  79.6880627  29.9485207  67.9905796  78.8558435  31.2052178  68.1288004
  33.6367369  64.0813541   9.5580417  33.3553529  63.6786556  10.3795588
  34.5546889  63.8254595   9.4679505  19.6137297  42.4556351  26.6299415
  19.9420571  41.7579031  26.0628366  20.3620076  42.6901865  27.1788478
  46.6973925  23.7148952  55.7021379  46.7525578  22.7593946  55.6877756
  46.2070227  23.9145374  56.4995766  17.1772540  14.3777466  65.2511930
  16.7216682  13.5828328  65.5282927  18.0932498  14.2211771  65.4806900
   0.5608952  13.7232459  18.2427287  -0.2395359  13.6584640  18.7636364
   0.8510906  12.8173757  18.1358707  85.6317616  35.1197767  38.8583517
  85.8131409  35.2328253  39.7913861  84.9762535  34.4230819  38.8244796
   0.5555110  62.2906303  19.0201187  -0.3366367  62.0672417  19.2854512
   1.0198555  61.4536333  19.0126848   9.3986958  17.3799121  45.4160690
   8.9988244  17.7961862  46.1796474   9.9199730  16.6638994  45.7791471
  70.3388405  21.0176826  42.1261644  70.7746983  21.6009021  42.7475405
  71.0537195  20.6190920  41.6298723  46.8757153  21.0530329  29.9500394
  47.5865555  21.3625693  30.5113983  46.8482256  20.1076913  30.0977087
  16.7126822  23.4104633  65.9182882  16.8532181  23.1815004  64.9995613
  15.8193898  23.7532520  65.9457541  76.9786453  38.0856395  54.9014568
  77.4207640  37.3856688  55.3818750  76.0540676  37.9843807  55.1275873
   2.4172063  22.9223275  12.7531135   2.1459018  22.2468734  12.1315110
   1.9519654  23.7093973  12.4697375  41.1312437  61.1571741  49.4018698
  40.2571106  61.1788225  49.7913027  41.6892195  61.6003799  50.0409794
  71.6180372  67.2357750  42.3662901  71.9632721  67.8153086  41.6871834
  71.7099190  67.7358150  43.1773090  79.5209694  49.4678164  37.8692913
  79.1767073  49.8051500  37.0422935  79.3319798  48.5298395  37.8425789
  33.8735914  53.7146044  25.7877803  33.6592770  54.4868040  25.2643275
  33.3549261  53.0102539  25.3990483  16.4591205  37.9700494   9.0232098
  15.9587181  38.4035254   9.7145331  16.4904034  37.0513868   9.2902517
   1.6363230  33.8381386  43.3144522   1.9807377  34.6908593  43.0489683
   2.2839206  33.2088494  42.9968929  68.4701443  34.2592216  44.7728586
  69.0484333  33.7167573  45.3090954  68.0490446  34.8500919  45.3971815
  73.6084795  50.7454300  54.4742775  74.0360403  51.5889645  54.3263674
  73.4647226  50.7123423  55.4200411   0.9206244  49.3885183  39.4902086
   0.4661965  50.0696278  38.9944124   1.8207529  49.4163465  39.1658211
  66.8837690  22.0137954  51.4319134  65.9439802  22.1227050  51.5773821
  66.9466400  21.6029167  50.5696726   5.2682590   5.3307205  35.8090806
   5.6266791   5.9521812  35.1753974   5.6959164   4.5006189  35.5986691
  47.9030752   8.0604190  32.7241874  48.2135391   8.8840574  32.3480701
  48.6806297   7.6721376  33.1252837  66.8393803  10.3583443  28.3742762
  67.3370981  11.0716808  27.9747033  65.9689045  10.4243863  27.9816580
   0.9651833  48.4423351  26.1461282   0.0855949  48.5606766  25.7875896
   0.8890611  48.7121296  27.0613599  85.2600288  28.9122581  39.7908878
  84.5247269  29.1785359  39.2389202  84.9915695  28.0697489  40.1574135
  35.1282072  24.4818997  41.3308382  35.4831123  25.3451896  41.1186886
  34.4086647  24.3599367  40.7114744   5.6855583  29.5044470  34.5054054
   6.4391965  29.3049908  35.0608134   4.9273437  29.3762207  35.0754046
  84.8474312  40.2036095  35.5755520  85.3905296  39.4637728  35.3036857
  84.2733192  39.8436236  36.2515974  70.6633806  46.3696718  52.4976254
  70.4764748  45.5433083  52.9430676  71.3042068  46.8051481  53.0597067
  54.4576454  67.4694157  18.1287968  54.5355177  67.9905939  17.3297095
  53.5825539  67.6696205  18.4610021  60.7586241  63.2888985  68.9923048
  60.5107355  62.9954386  68.1155729  60.2293444  64.0724373  69.1411829
   6.7804748  13.7064123  31.2522531   7.5246024  14.2661679  31.0304856
   6.0618824  14.0390635  30.7144785  19.0375042  22.5701356  27.7675724
  19.9595976  22.3218012  27.8331757  18.9331818  23.2748604  28.4068775
  72.7326727  48.3513069  30.5970740  73.4713316  48.1075621  31.1549306
  73.1257153  48.8603210  29.8880887  15.0002253   5.7142931  60.5255413
  14.2245293   6.0943711  60.9379339  15.3786814   6.4329863  60.0190973
   8.9005172  11.2968373  37.5138688   8.8371867  11.7147827  36.6550660
   9.3157500  11.9554269  38.0707121  73.1010342  13.0192113  52.1243763
  73.7992668  12.4250853  51.8492126  73.1012821  13.7115216  51.4633656
  18.4581757  20.0633740  66.5344286  18.5358417  19.1614664  66.8454981
  18.5031140  19.9925721  65.5809116  68.9285231  47.4566412   2.5680962
  69.1295958  47.9817295   1.7934464  69.2776728  47.9656410   3.2997000
  67.5808191  46.2961721  51.9526625  67.6378441  46.0299921  51.0349846
  68.4756994  46.5425062  52.1866417  50.1817322   3.2510492  19.3636894
  49.8478842   3.3019480  18.4680414  49.4000196   3.3007002  19.9138629
  59.3661642  38.3799267  47.0476294  60.1405478  37.8669930  47.2788429
  58.7802696  38.2806039  47.7980232  82.6386642  17.3616421  60.1193333
  83.2294941  18.1123316  60.1794481  81.8144608  17.7303767  59.8015833
  71.7943764  19.5740414  23.1861186  72.6919460  19.6569335  22.8640509
  71.8769979  19.6153748  24.1388512  12.4684572  18.6717892  36.7166185
  11.7388427  18.1691337  37.0788789  12.3596621  19.5495510  37.0825815
  82.4340916  71.8361092  60.3595495  82.2030640  71.0752869  59.8266268
  83.2754993  71.6059208  60.7536077  78.1691980  78.7909937  34.9240088
  78.0931854  78.6477327  33.9806461  78.5419321  77.9761839  35.2607369
  16.9948733  35.6475639  34.7115541  16.2822890  36.2010455  34.3919992
  17.0660591  35.8620214  35.6416988  40.1456356  67.7730608  38.9765859
  40.1822567  67.7754068  39.9330807  41.0506153  67.6241159  38.7026167
  81.7766380  26.7341685  55.8686018  81.0432529  26.4613295  56.4199066
  81.9582367  25.9728527  55.3175497   8.0472833  11.5984416  30.0619006
   7.6022023  12.2726417  30.5753112   7.9541147  11.8880165  29.1543221
  76.2395334  61.4547396   4.7298053  76.4478779  62.3034859   4.3393585
  75.3239489  61.3019037   4.4961864  81.2596893   6.9076294  69.1551542
  80.5585861   7.3535812  69.6303606  81.1414528   7.1779716  68.2445669
  28.1732917  54.8535013  48.5146093  28.8243222  54.7304726  47.8237724
  28.1894159  54.0332603  49.0077400  10.8412933  34.7641540  14.0834105
  11.6553676  34.7073889  13.5831177  11.1225116  34.7723675  14.9983311
  76.8009186  38.1305647  44.8128748  77.2550201  37.5871038  44.1689205
  75.8727169  37.9442430  44.6715975  11.9114268  79.6801901  45.4294157
  11.9734335  80.2335072  46.2080240  11.4837217  78.8809967  45.7369757
  52.5843430  16.1241436  55.4436350  53.4039450  15.9314919  54.9882555
  51.9348145  16.2024677  54.7449160  19.2890739  65.0951290  59.4481945
  18.7840486  65.7525682  59.9266911  18.7857950  64.9418020  58.6485481
  83.2056618  38.5623169  20.4830766  82.4367809  38.3332348  19.9609816
  83.8888264  38.7421727  19.8371923  60.8007812  21.3351893  18.5095751
  59.9988127  21.2105751  18.0020797  60.5072403  21.7399526  19.3258059
   2.9141816  50.8868361  48.6855412   3.8176936  51.0327721  48.9658976
   2.9202127  51.0796690  47.7479839  73.4658432  31.1824179  48.6203861
  72.5220394  31.0738087  48.5034657  73.8305473  31.0689163  47.7426958
  81.9673157  48.7704754  64.0171051  82.6982594  48.2929134  63.6248112
  81.2996101  48.7916946  63.3315754  80.4697800  44.6021175  40.0554132
  81.1114025  44.4476080  40.7487154  80.8902836  44.2710829  39.2617989
  42.7102137  17.9607463  27.3496032  43.2974195  18.4948826  26.8147063
  42.9594946  18.1609797  28.2518196  14.7135580  33.8318849  45.5529404
  14.0086734  34.4777966  45.5994940  15.4994345  34.3163466  45.8057785
  20.6267595  80.7140827  45.4739332  19.9678469  81.4078522  45.5014277
  20.4388714  80.2372169  44.6655226  79.8741007  62.6700354  11.1233687
  80.0343704  62.1358156  11.9012868  79.1348886  62.2446394  10.6888199
   0.2252444  64.3704987  17.1454251   1.1327896  64.6056604  16.9523120
   0.2911135  63.6986828  17.8240693  58.6486816  16.7395341  56.7207193
  59.4587231  16.8421948  56.2211943  58.1089592  17.4850094  56.4576578
  39.8408961  10.7999754  56.3013458  39.2090249  11.3550639  55.8443499
  39.8824930  11.1627614  57.1861553  20.8064914  16.2552881  33.3563519
  20.1891041  16.6126740  32.7181196  21.1026525  17.0165491  33.8553524
   7.6216567  14.9029195  47.9343414   7.4509132  14.3055916  48.6625433
   8.5300767  14.7276962  47.6887751  49.0264320  31.6603398  68.1573820
  48.8521671  31.1185455  68.9270067  49.9762630  31.7788792  68.1580114
  73.9017010  61.1979866  36.7190289  74.5543385  61.6628647  37.2426534
  74.2098761  61.2878942  35.8172679  76.6413450  28.3851385  22.7237153
  77.4388695  28.0721211  23.1505728  75.9514284  27.8093147  23.0533791
  19.7172022  45.5101395  18.2521510  18.7692285  45.3823280  18.2168972
  20.0613499  44.6686935  18.5517609  74.5984077  67.0191669  57.1062469
  74.6282387  67.1729851  56.1619616  73.7011576  67.2394323  57.3565674
  16.5093791  50.1582241  29.7290134  16.2264955  50.3982973  28.8466454
  16.2179184  50.8846951  30.2799392   9.2163134  61.6497278  54.5546770
   8.5463011  60.9830093  54.7056723   8.8277555  62.2372913  53.9065838
  30.6602716  24.1050816  52.5317669  31.4668870  23.7796426  52.1321487
  30.0565743  23.3633828  52.4909496  58.8029909  10.8147216  32.1552444
  59.7404003  10.9549761  32.2887683  58.7466574  10.3531599  31.3185740
  25.0514293  52.6022482  41.3125134  25.0057411  52.1264315  40.4832077
  24.2946100  53.1880283  41.2945604  25.6857157  48.0343819  62.3526859
  25.7259440  48.9903307  62.3804951  26.3172245  47.7876377  61.6770077
   9.2346448  21.7976594  51.6007614   8.6293030  22.4135923  51.1879444
   8.6799777  21.0716677  51.8862677  69.5053434  53.3477974  49.6236944
  69.1807365  53.4535503  48.7294483  69.2202759  54.1409969  50.0773478
  59.4504738  25.5209732   5.6798154  60.3380775  25.4501843   6.0310793
  59.5735645  25.7985497   4.7720528  76.8146324  45.6893969  35.3345227
  76.6457462  44.8280334  35.7163119  76.4581585  46.3080311  35.9720540
  64.1946363  17.1558988  39.4104218  64.4174671  17.4964559  38.5440493
  64.8093176  17.5884151  40.0031519   3.5785246  20.0244188  59.1503859
   3.3847791  20.2083111  60.0695562   3.8171941  20.8746815  58.7811661
  78.8605118  10.8897209  45.0132751  79.4353724  11.6426456  45.1506424
  79.4227505  10.2300572  44.6071196  46.2892246  65.2931881   6.1961079
  46.5577078  64.5797205   6.7749989  47.1063137  65.6088257   5.8101356
   8.2575339  30.4714179  52.0541620   7.8015774  29.7732639  51.5841436
   7.7464336  31.2590098  51.8678665  82.6236916  17.7045321  21.8547606
  81.9994640  16.9826388  21.9284558  82.6419258  17.9109538  20.9202600
   3.9929470  39.3867445  39.7508097   4.1241369  39.6612287  38.8432407
   3.2398561  38.7969255  39.7161770  68.3965874  38.7391162  35.3601837
  68.0570745  37.8774405  35.1183629  69.3432426  38.6136866  35.4260874
   6.3593572  76.8509102  14.4080734   6.7053825  76.5044546  13.5855973
   6.2440217  77.7868700  14.2440367   7.0075750  38.7951779  50.3340244
   6.4056087  38.9616394  49.6086550   6.6475707  38.0238485  50.7718372
  73.4822559  58.9369965  13.4860837  72.9063082  58.3182859  13.9352024
  74.0090132  58.3925056  12.9010296  86.3312340  22.2304678  61.9733620
  86.2850666  22.2065258  62.9291487  86.7007065  21.3816214  61.7300844
  76.9040871  29.3753099  54.9624872  76.0359049  29.5328331  54.5914364
  76.7551184  29.3226099  55.9065533  74.1758060  13.2102203  42.7849102
  74.4734097  12.3531365  42.4798393  73.9541340  13.0729127  43.7059116
  28.1227350  41.8849277  11.7522347  27.9876542  40.9392929  11.6909540
  28.7947226  42.0738220  11.0972679  59.0143776  51.8381071  27.5195217
  59.0250731  51.0073280  27.0442033  59.5595503  52.4224854  26.9927168
  85.5311775  40.7304859  23.4005165  86.2558556  41.2536144  23.7431717
  84.9587917  40.5910110  24.1549325  54.3120956  45.9141493  65.8593130
  53.4350204  46.2921715  65.9230518  54.6032810  45.8301783  66.7672729
   6.5892845  32.6563072  26.8458462   6.4773482  32.3142028  27.7327895
   6.0438949  33.4425664  26.8217993  86.1496162  43.3393526  63.6006737
  86.4904594  43.3722067  64.4945288  85.7318878  42.4806166  63.5350370
  28.6693430   5.6195724  17.5047743  28.9185214   5.5900913  16.5810466
  27.9617739   4.9796236  17.5825214  42.8058243  77.7741051  11.4398551
  43.2795954  78.0253887  10.6469917  41.9438028  78.1785679  11.3421023
   2.5332442  36.9247699  29.8094916   3.1543583  36.5394974  30.4275656
   1.7668459  36.3528991  29.8522592  77.9877806  21.8065262  66.2964058
  77.9513454  21.3961935  65.4323816  77.2909212  22.4625278  66.2795877
  44.5432615  14.6584368  45.9559679  45.4846096  14.4940579  46.0114908
  44.4714975  15.4755282  45.4625702  63.3341455  41.8090820  60.6559420
  62.5279522  41.7173719  61.1637592  63.0505419  42.1833515  59.8218393
  77.2765255  11.2823224  55.2412987  76.6169596  11.9748163  55.2006149
  77.3990583  11.1229384  56.1771488  69.1702652  45.2167034  47.7913189
  69.1992474  44.7288275  46.9682932  69.1897106  44.5423174  48.4703302
  14.0730405  36.0548091  41.7963171  13.2584286  36.3788700  41.4121008
  14.3199050  36.7243290  42.4343061  17.5974751  20.3039289  26.7706394
  18.3049893  20.7601738  27.2261572  16.8310702  20.4317927  27.3296618
  59.0322018  37.9341602  52.7474308  58.1633377  38.2675219  52.5234365
  59.1488504  37.1706033  52.1820879  78.7366724  31.7957830  27.8181219
  79.0762806  32.6470637  27.5420451  77.7917004  31.9280672  27.8940105
  77.6564121  34.7262669  40.0048542  76.9378328  34.3248534  39.5162368
  78.3755302  34.7766376  39.3751216  71.6059160  69.5399046  17.8243053
  71.9270945  68.9685392  18.5218847  71.2882900  68.9393568  17.1500015
  23.9142895  56.3855028   3.1254363  23.1771040  56.7420673   3.6210698
  24.2722631  55.6994629   3.6888528   3.7957147  19.0161347  56.3419676
   3.9182615  19.5709312  57.1123028   2.8822926  18.7344670  56.3925219
  83.8446045  52.0567989  31.0498071  83.5497093  51.3608980  30.4624462
  83.7220097  52.8622580  30.5473781  33.5737896  40.0518751  22.2024107
  34.4937348  40.0067472  21.9418406  33.1307673  39.4292045  21.6260028
  73.3349991   9.1648930  10.2400327  73.7063408   8.2886809  10.1371181
  73.6978960   9.4832563  11.0665822  15.9914887  16.1305344   8.0463523
  16.8572736  15.8048677   8.2925028  15.5624819  15.3814232   7.6328099
  55.5408525  16.6109407  50.7049847  55.6571341  16.8454671  51.6256952
  54.6018553  16.4477873  50.6161308   4.8887500  44.1555548  13.2378387
   5.1530039  44.2039251  14.1565669   5.0051022  45.0465393  12.9079199
  53.2019615  28.5938668  35.7193637  54.0059757  29.1115332  35.7620025
  53.5026264  27.6852322  35.7046533  70.6138802  78.4271336  50.9054708
  70.7252264  77.6482439  50.3603363  71.3933897  78.9546919  50.7314682
  78.5813141  57.1940708  22.8164387  78.0825949  57.5905466  22.1020699
  79.2921400  56.7241955  22.3803425   2.5906557  23.4485555  36.4998889
   2.8243840  23.7639093  37.3729038   2.1778712  24.2009902  36.0759974
  85.4731083  46.6050339  49.7669554  85.0443172  46.8810558  48.9569044
  84.7554493  46.4844561  50.3887749  63.3951092  23.3082962  26.6578078
  63.6740160  22.3954606  26.7297339  63.4216785  23.4936023  25.7190919
   8.2522392  28.8966870  27.2091222   9.0436494  29.0081382  26.6823578
   7.5462234  29.2269230  26.6534972  64.8661709  38.8574791  48.9321232
  64.0249014  38.4301662  48.7711811  65.3330040  38.2563114  49.5125484
  74.6823740  65.5141115  37.0925355  74.7883320  65.8442831  36.2003517
  73.8068247  65.1273966  37.1024060  77.8352785  12.0588577  30.9736800
  77.5309372  11.4783764  30.2760744  78.6062956  12.4910641  30.6063104
  85.7913780   7.6312149  39.0869832  85.9451008   8.5555273  38.8914156
  85.6548500   7.6062739  40.0340700  50.9676170  12.6207602   4.1498467
  51.2237453  13.1662726   4.8935166  51.7958546  12.3656774   3.7434191
  81.3157558  36.3790894  33.7061834  81.7565060  36.7997217  32.9679155
  81.5599442  35.4561758  33.6366725  52.1916294  20.4301357   7.7513111
  51.4953279  20.4368114   8.4080851  51.7314100  20.4844832   6.9137698
   1.7123003  30.7439828  53.0023479   1.2097742  30.5211377  52.2187424
   1.2743077  31.5183282  53.3555889  75.5300426  15.5794442  42.5348616
  74.9545765  14.8168707  42.5944662  76.0941315  15.5146313  43.3054686
  37.1578622   5.0726622  35.6060791  37.6495457   5.8921826  35.5525470
  36.2542105   5.3224671  35.4131007  37.8899074  66.6675234  24.9397278
  37.4344397  67.1235418  24.2320347  38.7342763  67.1132660  25.0074744
  78.7174082  47.9915905  10.6586957  78.8154840  48.5369396  11.4392114
  78.4318781  48.5991287   9.9763495  25.4388595  21.8801165  66.5475988
  25.8787966  21.0415983  66.4076805  24.8797965  21.7329121  67.3104954
  69.4430923  62.4287033  46.5944433  69.9019766  62.9879284  45.9676075
  69.7723675  62.7066231  47.4491787  40.5823374   6.2993860   0.6681688
  40.1637936   5.5757421   1.1344210  40.3468704   6.1612689  -0.2492789
  85.5930138  49.5256186  33.1748295  86.4178085  49.6277189  33.6497140
  85.0835800  50.3010798  33.4101319  10.6827831  18.2794774  50.4208040
   9.8770714  18.5800946  50.8411503  11.3006520  19.0000296  50.5444002
  60.6305170  36.5921044  50.5998516  61.1489916  36.3559508  49.8306656
  59.7673225  36.8110204  50.2488518  18.1178427  54.8029757  41.6477346
  17.6766741  53.9588642  41.7430401  18.0934298  55.1863194  42.5244808
  32.7506566  33.4325123  66.2086916  33.2081127  34.2290378  66.4779711
  33.4420753  32.8598166  65.8767366   2.0646416  69.3880796   0.9259158
   1.9544207  70.3339863   0.8292837   2.6373294  69.1383553   0.2007270
  38.0648851  39.3889022  50.7186556  38.8093710  39.4194841  50.1177931
  38.1988358  40.1342440  51.3041115  11.6348565  53.2974958  43.4822464
  12.0869398  53.4725475  42.6568937  12.2116280  52.6915455  43.9474249
   5.9325254  33.5089564  12.4215877   5.4504985  34.2628431  12.7614939
   5.2634716  32.9636312  12.0078003  13.6839819  73.1369209  38.1663918
  14.6024048  72.8718138  38.1168985  13.5634375  73.4145737  39.0744734
  43.0757713  62.2400618  35.5722022  42.9317284  63.0798531  36.0083604
  43.8829470  62.3647547  35.0730515  37.6573277  57.6091528  23.1543660
  38.2509995  56.9604826  23.5325313  37.9161787  57.6631737  22.2344160
  54.0068722   7.8651208  37.1347547  54.2609310   8.4449303  36.4167666
  53.2666874   8.3079714  37.5497746   6.0530955  54.9157906  25.6146026
   6.0970813  54.7279119  26.5521526   6.1265671  55.8684587  25.5575299
  16.4462101  64.0893984   2.4084829  15.5354619  63.8800812   2.6157415
  16.9222879  63.2752705   2.5721276  64.7492695  73.9779615  35.0919199
  64.4444513  73.2731342  35.6633520  65.6190252  74.1977549  35.4257703
  76.4982939  27.1506786  49.2084694  77.2727680  26.8726158  48.7194872
  76.7359734  28.0054951  49.5676756  60.7276392  53.2540131  19.1116941
  60.4642630  54.1716194  19.1814506  60.3881550  52.9712772  18.2625508
  73.6760044   2.2132473  12.0657957  73.9099264   2.9897031  12.5743508
  73.8866043   1.4777537  12.6410604  10.0823259   3.7008187  51.0384178
   9.8182070   2.7843666  51.1195850  10.8782995   3.6745512  50.5074120
  73.9869738  21.7495418  18.5820472  74.0488148  22.1388292  17.7097726
  73.4942055  22.3896050  19.0955949  74.6375895  49.3734121  39.2432332
  74.3016195  50.2234364  38.9589500  73.8802814  48.7896490  39.1991878
   2.8013906  46.4846230  18.5387862   2.1513161  46.9234753  19.0874612
   2.5028354  45.5762911  18.4937310  80.2607536  34.7458053  46.0469198
  79.9325323  33.9111805  46.3814354  80.8081627  34.5055938  45.2993393
  66.2673378  42.8929663  47.9448986  66.9542694  43.1692600  47.3382568
  65.8141279  42.1849394  47.4871540  67.0115423  41.8040800  56.7564726
  67.7642107  41.2139797  56.7952204  67.3354673  42.5751829  56.2909555
  15.8383465  37.6607442  68.2003307  14.9228144  37.4429798  68.3752918
  15.8663630  38.6171627  68.2269907  64.2973280  55.6576967  21.8715620
  64.0740728  55.0269270  21.1870813  64.5135546  56.4600897  21.3965440
  25.7872772  58.3556509   1.8901202  25.3899860  59.1788101   2.1743761
  25.4364085  57.6997614   2.4925543   3.3471453  71.6847754  43.2734680
   4.1595045  72.1802521  43.3774137   3.4967625  71.1386681  42.5017071
  25.8219767  30.6694531  27.2222066  25.0094295  31.0412979  26.8790913
  26.4476156  30.7563996  26.5030050  79.8013449  38.2078171  34.9362063
  78.9677715  38.0576611  34.4902945  80.4143047  37.6123428  34.5050168
  18.2422018  24.2921901  30.2798414  17.5212538  24.8773718  30.0474024
  17.8878069  23.7409115  30.9775019  37.5938153   0.5469889  70.3492785
  38.4982061   0.7711067  70.1300049  37.3722982   1.1290832  71.0761404
  76.0876322  13.5606992  64.5208025  76.2988091  13.9576662  63.6757898
  75.1393032  13.6617386  64.6025801  66.9960356  53.5210943  24.4191766
  67.3073959  53.4669781  23.5156536  66.5965223  54.3885708  24.4832850
  55.4719019  62.5441217   7.8380120  56.3813019  62.2492218   7.7905583
  55.0875330  62.0228291   8.5428131  84.9718380  54.5815945  14.3276751
  85.9100628  54.4492149  14.1918290  84.7684956  54.0692139  15.1102018
  38.1043863  30.4428720  69.5711184  37.8685379  31.3676262  69.6448708
  38.3555555  30.1882076  70.4589748  13.9896262  76.5222263  48.3762980
  14.2383444  76.2280416  47.5000381  14.5446718  76.0125923  48.9665747
  26.5827036  78.3504295  22.2722101  26.9074440  78.6116171  23.1339312
  25.6635857  78.6177349  22.2715116  42.9241085  36.7943907  65.4465961
  42.8069496  35.8906364  65.7393932  42.8376341  37.3174739  66.2435484
  85.3903675  27.4486184  61.7208338  86.1571312  26.9226456  61.9480801
  85.4130077  28.1827211  62.3346853   5.4233545  75.3366852  52.8445530
   6.3153613  75.2840900  53.1877565   4.8906922  75.5872154  53.5993624
  75.1204824  43.8858557   5.6119776  75.8851480  43.9074039   5.0366062
  75.4607010  44.1330719   6.4718425  58.1221151  80.3388214  30.4799652
  58.3926916  79.8983288  29.6743655  57.3332405  80.8225060  30.2351165
  79.7369385  38.7781072  16.7260385  79.8561287  39.5230007  17.3152399
  78.9292145  38.9748597  16.2515903   1.3525571   8.1646514  28.9987946
   0.8201244   8.5386992  28.2967710   0.7198153   7.7448529  29.5815802
  76.3089561  25.9957004   8.6042231  76.3505745  26.6990018   9.2521942
  77.0103073  25.3953290   8.8569987  71.0644245  63.5485792   6.9073302
  71.8394375  62.9875851   6.9367647  70.3567410  62.9970932   7.2409195
  52.2853613   9.7717512  27.8298759  52.1552944   9.0458190  27.2196817
  51.6758013   9.5945722  28.5463095  29.2621803  59.3131638   3.1799188
  29.7799921  58.8483763   2.5225961  28.3947825  59.3993950   2.7844229
  62.2813177  15.2928162  65.2161646  63.0234385  14.8809040  64.7736502
  62.0389366  14.6733201  65.9044266  78.5317707  11.8956614   3.8606209
  79.2583990  12.1900463   4.4097897  77.7755547  11.8887997   4.4474080
  59.6713638  21.6650081  50.9941912  59.3973207  22.5051188  50.6262970
  60.0121212  21.8831539  51.8616772   0.1806176  63.4684420  22.4398065
   0.3894256  62.5352669  22.3971438   0.1609770  63.6669207  23.3759975
  40.5410719  28.8017797  14.6895397  39.8143697  29.4208026  14.6192205
  41.2776232  29.2487144  14.2724407  66.5280771  27.3704147  25.0370955
  66.5826559  26.7089486  24.3473744  66.9149780  26.9488215  25.8044267
  39.8372746  77.2232628  17.3274028  40.5536842  77.8450966  17.4551404
  40.0978327  76.4512157  17.8296793  20.5027843  42.5259542  66.2831879
  19.9723208  42.1082592  65.6046867  19.8809409  42.7298117  66.9817495
  73.0229902  34.4497395  -0.2969761  72.6048946  34.4361234   0.5639787
  73.6521530  35.1693368  -0.2463485   0.3963248   5.6913900  10.7907152
  -0.2615283   6.3528627  10.5764365   0.9637289   5.6595838  10.0204742
  30.0873423  71.9524384  27.0725131  29.3267202  72.3751450  27.4712706
  29.7697449  71.6365957  26.2265778  29.1181612  49.9726057   8.6097354
  30.0102735  50.2262688   8.3730453  28.9815140  50.3572464   9.4755352
  77.0104313  36.4304328   0.9327731  76.1781502  36.2919927   0.4806981
  77.6573038  36.4925528   0.2299714  52.1606636   7.6279223  25.9942317
  52.0786047   7.7085614  25.0439715  51.3568687   7.1857303  26.2673831
  81.0596371   8.0635899   2.7901641  80.1343727   8.2031363   2.5885525
  81.2895393   8.7871921   3.3730686  66.8878555   5.0648081  36.3183689
  66.8324566   5.4347438  35.4372835  67.3563194   4.2382219  36.2020636
   3.4262270  12.2672772  19.3342185   4.2532665  11.9427204  18.9779890
   3.4540555  13.2118559  19.1818082  64.9577999  16.0323334  64.4674063
  65.0241327  15.4893625  63.6819029  64.7170210  16.8989360  64.1399050
  42.9322958  13.3283532  21.4922571  43.1513977  13.5244727  20.5813432
  42.8838110  14.1849351  21.9166970  52.5971699  54.5959425  35.0409746
  52.4244881  55.0241947  34.2025161  52.0159960  53.8353872  35.0456333
  77.3709774   9.7094256  23.7014627  76.8189716   9.6952105  22.9195952
  77.4625397  10.6384230  23.9131522  61.2187862  16.0881674  30.3471613
  60.2794313  16.1364174  30.1696277  61.5742016  16.8964875  29.9776626
  66.3807154  29.4157290  15.6654787  65.6533957  29.6024275  16.2590945
  66.0013151  29.4930553  14.7900903  65.1083660  20.7715607  15.5882454
  65.7578325  20.1026225  15.8049190  64.3060064  20.4742479  16.0172689
  22.3004842  73.1578159  55.6933784  22.1319866  72.4091482  56.2655115
  21.8803334  73.8959455  56.1348152  75.4721212  12.6618910  28.6098385
  76.3680935  12.9808748  28.5015917  75.3266382  12.0948255  27.8525376
  57.6253748  71.8354321  35.0484920  57.8849173  72.7373314  35.2367878
  56.9827890  71.6247225  35.7259226  63.6764526  12.6163268  59.9030209
  63.8615751  11.9772160  60.5911303  63.7689114  12.1237767  59.0874958
  61.3652515  22.7534246  39.5945787  61.1740446  23.6681795  39.3874669
  60.5463982  22.2911334  39.4156814  74.0053844  39.3205547   3.7836686
  74.3836355  38.7811470   4.4780716  73.7791777  40.1438999   4.2163002
  10.8137977  28.0201030  39.1869497  11.2074602  28.2231951  38.3384109
  11.4667404  27.4786186  39.6304512  38.2887435  70.5894709  28.2724190
  37.4473166  70.4105568  28.6922097  38.5345221  69.7589302  27.8649521
  57.1446609   8.8903052  49.9396276  56.2675905   9.0330416  50.2954435
  57.3137236   9.6638179  49.4017363  27.7188110  34.2712760  67.7917004
  28.1155300  33.5924768  67.2457361  26.8065429  34.3071675  67.5041056
   7.6906139  10.4405403   0.9022482   6.9482911   9.8408824   0.8274215
   7.4234909  11.0699475   1.5721166  71.6794157  37.4266243  12.1977127
  70.9673119  38.0547571  12.3185277  71.4159727  36.9093680  11.4366102
  74.4672346   6.4444315  34.4478679  74.6059513   7.1776015  35.0474095
  74.1282749   6.8489021  33.6492825  74.1338253  48.9460278  52.4684525
  74.0035868  49.5457220  53.2030487  74.6614265  49.4435883  51.8437099
  77.4284935  37.8600192  69.4718599  77.1464729  37.4692035  70.2988768
  77.0704222  38.7474942  69.4919300  19.7837389  24.2827749  17.0329559
  19.9639058  24.1264653  17.9599619  20.2227855  23.5634589  16.5790236
   4.4666180  33.6914468  61.8565130   4.3379888  34.0046525  62.7518272
   5.3020585  34.0730500  61.5869761  84.1167164  28.4719086  50.9601498
  84.5039749  28.8152170  51.7653799  84.4837761  29.0189171  50.2656841
   7.8989202  40.0716257  57.2596979   7.4082249  39.5132565  56.6566467
   8.7797147  39.6970272  57.2700214  35.6593513  51.1174583  36.7776418
  36.0883713  50.2676582  36.6775727  35.2765799  51.2951660  35.9184909
  27.8918147  56.6523647  40.3246069  27.5956750  56.9416237  39.4615531
  28.4933972  57.3384523  40.6137705  85.4419327  34.4515347  23.1565857
  84.8557663  35.1939178  23.3032751  84.8573399  33.7212086  22.9538321
  85.6363487  26.8387127  13.7507451  86.2220764  26.0819268  13.7714744
  86.0470486  27.4425697  13.1319451   9.2461938  13.1537223  70.3479147
   9.6229619  13.5028505  69.5402098   8.3083332  13.3285153  70.2698278
  52.8447723  54.8330259  50.1791048  53.7220240  54.7605038  49.8030758
  52.5963783  55.7458544  50.0332451  14.5274556  33.9346910  32.6753759
  14.0988410  34.5016932  33.3164930  13.9177239  33.9029932  31.9381809
  81.9321346  32.4105477  34.9613857  82.1625710  32.8900027  35.7571602
  81.2022114  31.8492222  35.2228546   9.4978076  31.8906999  36.8181705
   9.2661321  31.4004159  36.0293865  10.4380441  31.7451835  36.9231105
  15.0223708  39.3238306   4.0831780  14.3398821  38.9215660   3.5459423
  14.5530617  39.6868134   4.8343265  40.3502607  79.1154385  12.8382671
  39.6291780  79.6190548  13.2159436  40.3940868  78.3223629  13.3724451
  64.3272686  70.7534885  13.0810261  64.3214178  70.7267714  14.0378344
  65.0723696  70.2072239  12.8307188  20.7170320  34.4370627   9.2633712
  21.5670729  34.0979767   8.9828622  20.1410317  33.6725760   9.2593223
   3.5085958   3.7963280  16.9222689   3.1269473   4.4363254  16.3214540
   4.2873001   4.2300346  17.2711968  11.6098368   7.2079629  24.4473267
  11.2186062   6.6739827  23.7559271  12.5533485   7.0946145  24.3325686
  72.6991177  50.3179836  15.1103151  72.3590183  50.7855082  15.8731937
  72.2421360  50.7096767  14.3660200  29.5921659  72.0241976  56.3909292
  29.9296498  71.2804794  55.8917141  28.9419842  71.6418409  56.9802523
   9.7966129  32.1190357  28.7990451   9.5278883  31.2330723  29.0421247
   9.0124911  32.6518869  28.9311576   4.5718673  41.7825079  55.3679228
   5.1355129  42.5417471  55.2192926   3.7850475  42.1444607  55.7755232
  66.3273144  26.6998816   3.3746880  67.1143341  26.6474915   3.9169869
  66.6429758  26.5664577   2.4809375  -0.2208233  35.3635359  41.3271952
  -0.3503423  34.8911119  42.1495533   0.7109237  35.5827212  41.3210726
  18.8774157  13.7035251   2.8372765  18.2192469  13.8169158   3.5229793
  19.2196691  12.8206611   2.9774368  86.3235283  34.1556191  59.0870476
  86.4183140  33.8265014  59.9808741  86.4030647  35.1057220  59.1719580
  19.1817033   8.7695843  45.6940126  18.9305174   8.9354694  44.7853756
  19.4469726   9.6259826  46.0293388   5.7042187  12.5720239   8.3115488
   5.0551325  13.1777418   8.6693537   5.6268138  12.6711118   7.3626435
  62.7289295  74.2930794  20.6449342  62.3247814  73.4565735  20.4143858
  62.0011663  74.8345137  20.9506178  12.7506876  28.8277483  56.1282063
  12.5796723  29.1598558  57.0095062  11.9924903  29.1077781  55.6154156
  19.4117582  55.2365112  67.6263428  19.4686806  55.7412672  66.8150377
  19.9799538  54.4805288  67.4784517  19.4240892  20.5509615  57.8656673
  20.3434181  20.3620195  57.6776028  19.2115068  21.2931871  57.2998524
  31.9591403  75.1372004  11.4776886  32.4430585  74.3284178  11.3105834
  32.4466729  75.8104372  11.0030341  15.5293393  12.2984838  65.3999424
  15.6814241  12.0935011  64.4774008  14.8892772  11.6474748  65.6875849
  51.3578653  22.1181798  40.8997107  51.1154079  21.4664459  40.2419233
  50.6383467  22.7493572  40.8880949   8.7829864  38.2948899  60.6777811
   9.4775003  37.6494646  60.8093357   8.0409712  37.7853012  60.3522635
  67.0745373  14.8073304   4.9215361  67.1930313  15.3380466   5.7092744
  67.6108599  14.0292931   5.0740039  31.6651082  54.5555496   5.7711881
  30.9442019  55.0294781   5.3565580  31.5299940  53.6429596   5.5159330
   4.0547073  48.8798761   0.7403480   3.6408663  48.0445528   0.5230961
   4.8033881  48.6412621   1.2869471  40.0066137  70.3669119  35.6729054
  39.6874785  71.0858965  35.1275134  39.5113325  70.4465961  36.4881229
  55.5778408  14.2680192  30.5023432  55.9163475  14.1277683  29.6180487
  55.9875917  13.5805833  31.0274792  81.0193157  23.0714583  56.9591761
  80.5621338  23.9117599  56.9923925  80.3303432  22.4188304  57.0841742
  40.1547050  31.8362188  64.7594833  39.6314168  32.6118016  64.5573044
  39.6866798  31.1151147  64.3385410  79.9189138  11.6801441  14.2245686
  79.8041153  10.7298660  14.2294669  79.2015934  12.0052516  13.6805201
  84.7007370  68.4250259   5.3655046  85.5161572  68.8600826   5.1163971
  84.8957062  67.4907494   5.2923334  41.5767002  26.1743808  27.2258639
  40.8471918  26.4712286  26.6818690  41.1603642  25.8122468  28.0080128
  13.0397975  39.5976472  43.0522060  13.3175302  40.2008629  42.3628378
  13.8469493  39.3773365  43.5171795   2.4917537  17.3696303  41.3634634
   1.8152270  17.3538208  40.6864882   2.0056599  17.3637056  42.1880293
   2.5961718  10.9170628  27.2069573   2.8701004  10.5207419  28.0340767
   2.4481271  11.8383741  27.4202609  58.7025499  16.3146698  29.3407607
  58.4556389  16.6541481  30.2010059  58.5774517  17.0544755  28.7463975
  78.5670900  74.8868513  57.8838110  78.0799389  74.2818308  57.3244667
  78.6183405  74.4422626  58.7299490  35.2804470  22.4399209   8.6734664
  35.4784703  22.8527546   7.8328800  34.5980263  21.7999268   8.4711242
  27.8926969  29.9418449  66.6449022  27.0688820  30.3870749  66.4465809
  27.6270628  29.0932751  66.9993019   1.5238756  64.5642853  69.9641657
   0.9253740  64.7357607  69.2371035   0.9716362  64.1752148  70.6423187
  17.4358797  63.9582872  40.4719400  18.2271314  63.9780807  41.0102367
  16.8976200  63.2698631  40.8625555  64.0469885  48.0838060  60.2179813
  64.8939419  48.0112696  60.6580210  63.4810686  48.5162258  60.8574963
   4.7008672  33.5278273  58.4725285   4.3444094  33.4786201  59.3595171
   4.9434403  32.6262355  58.2615232  57.6498508  81.1427784  63.4060383
  57.8075838  81.3188457  62.4784851  57.7862072  80.1997566  63.4973955
   6.2909615  29.5548558  69.7720671   6.9758195  30.1828313  69.5421791
   6.7526913  28.8556004  70.2347565  19.0137303  43.6293268  60.9465504
  18.8329256  43.4462500  60.0245857  18.8257563  42.8052282  61.3957262
  33.8730717  33.3126426  27.3294353  33.4519935  34.1659069  27.2252011
  34.7587800  33.4395003  26.9893456  66.5381241  19.1893637  12.1570647
  66.6081142  18.7904215  13.0243468  67.0326567  20.0058103  12.2283697
  23.0550170  34.7664714  44.0464592  22.1722388  34.4955516  43.7943983
  22.9197192  35.3883481  44.7614384  62.2388411  19.9774444   9.3231302
  61.7162132  20.1894522  10.0965297  62.8848553  19.3445539   9.6367347
   6.7296177  23.1573629  42.9621840   6.1172473  22.7068329  42.3805857
   6.2316924  23.3050656  43.7662268  86.2295151   8.4749514  33.1280684
  86.6759682   8.4013939  33.9715767  85.3154469   8.6458921  33.3549762
  51.3860750   2.3794211   8.8773751  50.7201147   3.0103496   8.6041468
  52.2180414   2.8249103   8.7173462  13.2991302  60.0119209  61.6852665
  12.8086150  60.8070803  61.4770555  13.8168478  60.2447748  62.4559689
  45.3658628  78.8672733  22.9755640  45.7429695  79.4995975  22.3638558
  45.9822845  78.8451815  23.7075257  67.8871059  21.1258054  69.7299242
  68.2895136  21.8625975  70.1897478  67.9343605  20.4002857  70.3525162
  42.4026155  37.9031062   9.2383635  42.8265715  38.4487343   8.5759550
  42.8420973  38.1347489  10.0565481  63.4550571  66.0869026  24.6963859
  63.0754375  65.9643888  23.8262630  63.2440042  66.9922590  24.9244714
  25.6979775  52.8311396  66.9067764  26.2600613  52.2648048  67.4355078
  25.0071383  53.1109762  67.5073290  45.8567238  19.3369460   2.6117095
  45.7504654  18.9983594   3.5006979  45.2704811  18.7995124   2.0790589
  84.6313095  37.6497316  28.3007050  84.6309471  37.5694895  29.2545342
  84.0797234  38.4118700  28.1242537  41.7868423  67.3316717  45.5123138
  41.0271120  67.8395081  45.2274656  41.7028618  67.2888803  46.4648628
   5.7860547  35.3723693  27.5012279   5.7185966  36.3271260  27.4901438
   4.8788369  35.0684810  27.5301933  50.7636690   1.4423110   5.8667165
  51.7051315   1.6112776   5.9032184  50.5937147   1.2307182   4.9487969
  32.1966743  74.0002489  15.0831461  32.2801113  73.2236481  14.5298266
  32.8297734  74.6207523  14.7220552  56.6298056  36.2775779   6.7639846
  57.1734142  36.5739226   7.4939847  57.0058489  36.7069793   5.9955847
  10.2250695  44.4808912  15.7047856   9.7612000  43.6807394  15.4581869
  11.1317694  44.2022228  15.8331263  80.3571224  80.7365799  65.3957653
  80.0041294  81.5266514  65.8049297  81.1602688  81.0285473  64.9645567
  71.0869026  49.2603874  20.6466675  70.2368164  49.2267323  21.0853624
  71.6483879  49.7477961  21.2494946  73.7607765  70.2389669  20.0842977
  73.8212442  69.9199677  20.9847498  74.0285063  69.4930696  19.5474660
  67.0951223  54.3185520   1.9562066  66.8795729  53.7435389   2.6904628
  67.7384472  53.8256788   1.4468476  16.3211262  45.9708738  60.6997395
  16.2362504  45.2719736  60.0512314  17.2410011  45.9429598  60.9629536
  81.0866070  38.2307792  19.0556872  80.6619835  39.0863514  19.1183364
  80.9881973  37.9812622  18.1368339  24.3701959  38.1589437  57.7987814
  23.9388132  37.4585056  57.3093653  24.5318842  37.7822781  58.6637735
  64.4408083  29.8737168   8.3741885  63.7085104  30.1435971   8.9283907
  64.1021442  29.1305780   7.8749061  41.6038370   4.8863319  52.0091820
  42.2112465   5.6124121  52.1509266  40.9196377   5.2523661  51.4487171
  35.1254272  18.5503638   8.1510568  34.3906713  19.1636646   8.1662405
  35.4581285  18.5529160   9.0485734  43.6299372  55.2136803  14.0118349
  42.9850388  54.6912098  13.5350120  43.1065035  55.7988548  14.5593929
  64.3676329  16.1594319  14.5854902  64.0854740  16.3107610  15.4875529
  63.9452219  16.8556476  14.0824151  54.4399071  22.8918886  34.9145770
  54.0201855  22.7381039  34.0681648  55.3705215  22.9789186  34.7081518
  77.3174763  20.7793975  49.5360374  77.1060467  19.9909520  49.0361595
  76.8664074  20.6611466  50.3719711  67.6454926  72.9831934   6.4432985
  67.6609421  73.8896656   6.1362153  66.7815590  72.8801870   6.8423480
  46.9565058   8.7045121  63.5148096  47.0315409   9.1318250  62.6615763
  46.1656618   8.1696475  63.4460878  23.9345860  16.6735566  69.8226976
  23.7468123  16.1214805  70.5817652  24.3198013  17.4675357  70.1934242
  37.5406790  68.3608866   4.8441356  37.8571320  67.6255894   5.3689456
  37.8785396  69.1370296   5.2909982  19.3778014  27.5638413  46.5223551
  18.4523880  27.3361301  46.4329672  19.7791791  26.7867661  46.9113064
  31.3727188  32.7078795   0.3758521  30.5395675  32.2934008   0.6001280
  31.8037581  32.0805192  -0.2045403  14.0294230  67.1977329  29.4423509
  14.0698969  66.2418652  29.4725752  13.3584166  67.3884392  28.7869000
  47.1249533  32.9167271  22.3015881  47.7521896  32.2128034  22.1363688
  47.5337601  33.4459376  22.9864573  29.4415045  69.1386986  13.0120361
  28.8570356  69.7132206  12.5175118  29.3803906  69.4537210  13.9138436
  55.0331163  12.5625205  17.5333059  55.3198767  12.6412368  16.6234684
  55.7181311  12.9998314  18.0390191  71.3540125  68.4456158  32.7755475
  71.0490608  67.9676914  33.5467982  72.2692156  68.1829309  32.6773858
  25.1695895  26.1807632  60.3947353  24.3356538  25.9931564  60.8255386
  25.1770639  25.6082034  59.6276951  63.0055428  20.9384203   3.2507303
  63.0206633  20.3541470   2.4926883  62.2066402  20.7000041   3.7209934
  22.1290421  28.0817604  33.4833431  21.2138295  28.3578348  33.5323596
  22.0943284  27.2035885  33.1040764  38.7825513   6.9570667  66.9914007
  37.8653979   7.2269160  66.9440651  38.8546848   6.2417746  66.3594341
  61.7284489  28.4503078  24.0949774  62.3951674  28.9038467  23.5792065
  61.7048502  27.5653934  23.7308335  17.0158982  72.8843832  45.2950191
  16.8663538  73.2672834  46.1594582  17.9621840  72.9476166  45.1654959
  13.8227868   5.9348023   5.8668518  13.3252001   6.6333795   6.2918568
  13.2138848   5.1973349   5.8266997   1.3007769  59.7487497  53.9524746
   1.2671892  60.2685928  53.1494379   1.0970782  58.8573313  53.6694288
  49.2184639  64.0102434   6.5340835  50.1484060  63.9328384   6.3209003
  48.9525509  63.1220436   6.7720401  31.6282940  38.8034487  58.6482286
  31.4338160  38.6770535  59.5769024  30.7781267  38.9862943  58.2482100
  17.7173162  57.5014830  57.1271849  17.7243721  56.7505312  57.7206993
  16.8713391  57.9215431  57.2824526  22.8953409   4.5390290  32.5434375
  22.1569729   4.1046110  32.9704356  23.4448218   3.8219205  32.2271204
  81.5346241  58.0970812   4.3229151  82.4614525  57.8992844   4.4574597
  81.5340996  58.8650513   3.7515581  12.4071991  36.9227719  59.7493649
  11.8636513  36.4242625  59.1392231  13.0784070  36.3025069  60.0339460
  49.1390562  53.5277414  12.8725648  48.5216093  54.1744280  12.5308228
  48.6270380  52.7221727  12.9441357  82.5172710  58.1700850  42.8420782
  81.8774891  57.5908566  42.4280691  82.0571613  58.5331964  43.5988379
  78.6650038  62.8220558  61.9400549  79.6048164  62.9775667  61.8462038
  78.5259295  62.7585316  62.8849649  74.2598820   8.2715344  60.7995367
  74.5053959   8.9021713  60.1225901  73.3059597   8.3329552  60.8494616
  57.6809978  35.9245992  15.8507848  57.9844189  35.9805202  14.9446726
  56.9535494  36.5449023  15.8984852  68.7391233  20.7784104  21.2093163
  67.8464603  21.0849810  21.0499382  68.6624622  20.2030730  21.9704604
  61.5126514  77.8776169  19.7183931  61.2823582  77.7721262  18.7953186
  61.2336683  78.7673473  19.9346805  16.8330204  11.6608119   8.2007617
  16.9684398  11.1666822   7.3922265  16.5210009  11.0101736   8.8296860
  68.5829401  31.0714364  22.9165578  69.5229769  31.0542250  23.0961847
  68.4063053  31.9739580  22.6510644   3.4195679   9.5788991  34.3323135
   3.3056858   9.3803620  35.2617455   3.4840724   8.7220669  33.9105201
  57.7976799   2.2529955  69.1139126  57.2586823   1.5377724  69.4518042
  58.4897995   1.8170771  68.6167479  14.9201775  21.6485667   1.5305416
  14.6412253  21.6446686   2.4461846  14.1036463  21.6699743   1.0314926
  60.0434828  38.6630058   5.1521671  60.1212358  38.1030989   5.9246236
  59.4187641  39.3409801   5.4096770  67.7140427   9.8337734   5.8781701
  67.3097897  10.4468799   6.4920998  67.2694731   9.9992198   5.0467759
  10.3991807  13.6759424  67.9465246  11.3538074  13.6323392  67.8915691
  10.0972748  12.8833961  67.5027275  27.6448345  78.9149570  14.8952138
  27.0213199  79.4200897  14.3733871  27.0976877  78.3684349  15.4592848
   4.9589819  59.7137308  42.4053049   4.3328312  59.0082455  42.5679588
   4.7499913  60.0207949  41.5231133  21.4194989  36.5552258  28.8863587
  22.0740247  36.0097027  29.3225145  21.6951561  36.5734887  27.9698920
  38.6674428  53.9571476  42.5699949  39.2153931  53.7167120  41.8228865
  38.5750771  53.1462193  43.0700922  19.3358254  67.3707628  30.2997637
  20.1238346  67.7935791  30.6410861  18.6448216  68.0229568  30.4154921
  67.6283550   7.3689246   7.3288107  67.2271156   8.1049925   6.8668121
  66.8987846   6.9411081   7.7770627   0.3385834  17.8805947  22.9529786
   1.0215148  18.5315251  23.1146193   0.3927590  17.7048135  22.0136189
   2.2303979  19.0684295  29.9983907   2.0615849  19.3439889  29.0973902
   2.8805596  18.3705795  29.9175978   5.2859873   5.8340800   4.8649302
   5.4274338   4.8875365   4.8481795   4.3619567   5.9341556   5.0938052
  47.8563595  56.1120510  12.2725904  47.6500320  56.4897394  11.4175975
  47.1069431  55.5516672  12.4740362   5.2181941  10.4217446  23.5255194
   5.5041695   9.8976821  22.7773166   5.6851816  10.0474823  24.2725682
   6.8915987  12.3826921  12.7716935   7.3956817  12.9013717  12.1447134
   6.5342891  11.6615522  12.2535062  77.6239395  50.8099937  24.3272614
  78.0011129  50.2578783  25.0121975  77.6987886  50.2865362  23.5293746
  68.8944101  44.6341324  61.9475365  69.1008091  44.2596388  62.8039122
  68.6363077  43.8828564  61.4134979  73.4882498  35.7447505  25.3926039
  73.6282301  34.8294353  25.6351709  72.6677418  35.7391143  24.8996854
   7.3882776  29.0141296  32.3002100   6.8212593  29.4056153  32.9646349
   6.8858659  28.2721853  31.9635630  26.6083789  46.6267586  45.3271055
  27.4765086  46.2259531  45.2831173  26.6369605  47.1745777  46.1115217
  14.1628683  64.2212343  28.7698960  13.7235415  63.3709431  28.7548375
  14.4652975  64.3505239  27.8709769  62.3225307  11.7215514  10.2831781
  62.5554085  11.5665877   9.3677610  63.1353474  11.5712273  10.7658422
  84.5140457  30.4176402  49.0721989  84.1461086  31.2074542  49.4684839
  84.5637703  30.6193542  48.1378174  82.2192097  47.8712702  12.4367380
  82.8309917  47.1479702  12.5738287  81.9043636  47.7520990  11.5406895
  14.4948697  72.3580742  62.0838833  15.2318633  72.3491526  62.6946115
  14.2935705  73.2862806  61.9649649  75.0229263  11.6190529  25.6344509
  75.9246683  11.4531171  25.9093308  75.0843334  12.3818231  25.0594354
  13.5665309  47.8072453  60.0581598  13.3850515  46.8686628  60.1067352
  12.9678130  48.1324816  59.3858576  42.8413963  24.4616699   2.2268908
  42.5883102  25.0459909   1.5122244  43.6699390  24.8189688   2.5464037
  22.9486156  56.1664581  50.4482174  22.3568392  55.5086088  50.8132744
  22.6913452  56.9834757  50.8754492  39.5145273  46.6829920  70.2811718
  40.1091719  46.5110636  71.0112906  39.6039629  47.6214647  70.1153183
  45.9440231  57.5417328  53.0924749  46.2133312  58.1175470  52.3768282
  45.0069141  57.7082396  53.1941509  70.7729864   1.8676373  63.5811901
  70.4545736   2.5801653  63.0269814  71.7265511   1.9250937  63.5208750
  64.8563480   6.6944838   8.2913554  64.6738911   6.0801578   9.0023726
  64.2402029   6.4510351   7.6004630  63.8644934  39.9374032   8.7207770
  63.4818220  39.5820904   7.9185629  63.7593889  40.8851147   8.6369419
  62.7911377   0.5430118   6.1589539  63.5257530   0.2357410   5.6277728
  62.7568626  -0.0668375   6.8959343  16.4721954  56.0869646  68.5220337
  15.9884775  55.8948040  69.3253517  17.3926997  56.0040426  68.7710857
  29.9459076  79.3962383   7.7357787  29.7658038  78.6869383   8.3527774
  30.3090215  78.9578533   6.9662338  74.6969223   3.7899154  14.3683541
  75.5544758   3.3713901  14.4436574  74.8857212   4.6623743  14.0228081
  16.6523063  73.6559105  32.5775981  16.2525237  74.1207838  33.3126497
  17.1320212  74.3319893  32.0990324  79.0579319  15.1132560  16.7284381
  78.2551479  15.2836204  16.2357485  78.7747288  15.0749946  17.6419830
  70.4039335  71.4737844  15.3666604  69.7092390  71.3240337  16.0079145
  70.9855938  72.1070862  15.7871675  15.8298302  55.1491308  38.2123709
  15.7652056  54.2991352  38.6477542  14.9242163  55.4504919  38.1397247
  62.6156425  19.9520314  16.2909627  62.1449900  20.6251574  15.7994151
  61.9960833  19.6694887  16.9636786  85.5697918  20.1686907   8.6095530
  86.1414719  20.3723574   9.3497813  85.1009941  20.9852457   8.4372193
  86.8812370   4.3178818   6.4228815  86.5162277   5.0170106   5.8804661
  86.1171627   3.8955772   6.8154114  35.0752044  75.3289652  36.7809725
  34.2126274  75.1492357  37.1549869  35.4425454  76.0111713  37.3430109
  19.6633613  42.4497032   4.1543418  19.4615316  41.7610931   4.7878361
  19.7391355  41.9907904   3.3177474  10.1570076  36.9081880  70.3697375
   9.6987575  37.7430107  70.4662330   9.4762629  36.2460329  70.4896162
  41.7232656  47.1908760  65.7966232  42.5297642  46.7538595  66.0701275
  41.0761070  46.4876366  65.7430363  68.1438351  23.3943272  48.6070204
  67.2496176  23.2213807  48.9014578  68.3204794  22.7091289  47.9624033
  84.6087360  53.7255621  41.1616802  84.8748302  54.3927193  40.5289602
  84.5827389  54.1871643  41.9998169  15.3814852  52.6188231  62.4804115
  15.9985888  52.2827387  61.8304396  15.9025085  53.2129145  63.0206203
  11.6434205  16.4120388  60.9566593  11.0948408  16.8729579  61.5913630
  12.3681068  16.0628140  61.4754105   8.7340438  35.3458333  65.1189137
   8.7841177  35.9075499  65.8923435   9.3427056  35.7420015  64.4953632
  46.1007643  25.9572959   9.6153861  45.9520626  25.2104354  10.1953173
  45.3652000  26.5449214   9.7882265  72.5767612   4.2072645  23.1637645
  72.6932383   5.0222337  23.6521196  71.8747139   4.3988910  22.5419641
  65.6294823  10.4236162  36.6271162  66.1741734  10.9377015  36.0310793
  64.8514080  10.2066267  36.1135554   1.5107997  60.1782799  41.8570709
   0.7155391  60.4927206  42.2870970   1.6885146  59.3333960  42.2703743
  21.4632964   6.6274261  12.4014783  20.6465960   6.6415560  11.9024467
  21.9118881   7.4346143  12.1495950  57.7535629   1.9859354  29.7465396
  58.5573053   1.4671823  29.7130704  57.5380802   2.0339201  30.6779337
  52.3052168  12.3302400  18.3862424  53.1580496  12.4036217  17.9578447
  52.1367168  11.3887727  18.4246910  76.8672371   4.3610162  11.9184768
  76.3207865   5.1459509  11.9571829  77.1019554   4.1873941  12.8300655
  39.6516204  76.9137192  14.5268106  39.5021677  76.8561506  15.4705167
  38.7801838  77.0473480  14.1540182  32.6141596  26.9907403  26.0855103
  33.2394171  27.7119350  26.0136390  31.9130850  27.3357630  26.6383982
  86.1535263  59.2355919  61.0290241  85.5762100  58.5279799  61.3157749
  85.5633736  59.8886395  60.6528902  45.1331758  80.0046539  19.6455443
  44.6193552  80.4573631  18.9767563  45.5123234  80.7077312  20.1729631
  61.0594368   7.4426067  40.9657335  60.3439474   6.9138813  40.6125307
  61.7945910   7.2753453  40.3759909  22.9001188  12.5492442  30.9442329
  22.3053288  13.0456138  30.3820276  23.4114432  13.2172775  31.4008617
   3.0020836  12.5413454  58.4523344   3.6379319  13.2476461  58.5666513
   3.2695249  12.1070886  57.6423168  62.1287155  59.9173260  56.0748386
  62.2773838  59.2543125  56.7490387  61.5687323  59.4831467  55.4312992
  68.8544130  76.0760403  24.7344422  68.1327152  76.3304281  25.3094816
  69.4339800  76.8377924  24.7261524  38.5502768  16.6753256  15.3816342
  38.9362669  17.5321448  15.5635786  38.9274645  16.4163697  14.5408595
  44.2652607  81.4266014   3.1608394  44.6455622  80.6504059   3.5720915
  43.9333296  81.9469738   3.8924593  21.7028379  17.0270717  58.3682394
  21.2233448  16.9474530  57.5436354  21.0635710  16.7917919  59.0407085
  66.4313316  81.1139297  12.0230985  66.2770033  81.8679047  12.5922453
  66.2016582  80.3564930  12.5614142  38.8553524  59.1320181  11.3064122
  38.9989376  58.6030006  10.5217087  39.7318196  59.2712307  11.6650975
  82.7653313  78.9323711  50.3272820  83.2761955  79.3010235  51.0479355
  81.8569183  79.1382933  50.5477858  40.5674696  79.4623327  67.3923159
  40.8673859  80.1133060  66.7578793  40.6465340  78.6261988  66.9331217
  48.0163670  51.0405636  65.1744413  48.5988522  50.3053856  65.3653669
  48.4399128  51.7945433  65.5847502  32.9130745  38.3811188  68.7193155
  32.3324227  38.9310789  69.2452621  33.7939715  38.6132717  69.0131807
  81.2773800  73.2962227  27.0138597  82.1828556  73.2120466  27.3126364
  81.2501526  74.1425419  26.5674996  18.2561374  52.8006315  58.0048037
  19.1673136  52.5172186  57.9295111  17.9555523  52.8836060  57.0998192
  33.0553627   8.8094288  28.4873533  32.5982356   8.3683521  27.7713084
  33.8908648   8.3477968  28.5585022  13.2858384  42.8163242  59.3831968
  12.5480461  42.2329855  59.2053938  14.0603018  42.2916460  59.1803408
  82.0098209  27.9354429  16.6474652  81.3058853  27.5853014  17.1934569
  82.1249390  27.2823811  15.9571826  55.4683781  25.3953171  15.3739440
  55.9981585  26.1924839  15.3833175  55.5576944  25.0379753  16.2574375
  69.2638636  56.8298578  53.8507891  69.3283129  56.0013056  54.3257380
  70.1310730  57.2251225  53.9399529  30.9024215  61.8327379  15.4934680
  31.0795665  61.9989538  16.4193308  30.3510642  62.5657511  15.2197444
  18.0681252  80.5519199  53.4924316  17.5274074  80.6752205  52.7122688
  18.7480533  79.9366856  53.2178164   4.2646828  26.7917013  38.2923865
   3.7663886  25.9829402  38.4100294   5.0143504  26.6988015  38.8802624
   2.2498854  47.1026325   0.5348959   2.2997974  46.2130356   0.1851016
   1.3119149  47.2788382   0.6083394  60.4672575  74.6157074  35.5175829
  60.5668879  74.2037010  34.6593547  59.5251083  74.7596836  35.6062269
  57.6672697  14.4339418  67.6304150  58.2892942  14.2156458  66.9363976
  58.1205940  14.2004740  68.4404898  83.6573219  35.3553319  41.7138529
  83.9310265  35.2216458  42.6212931  84.4512939  35.6448126  41.2643719
  26.3944244  54.0750837  23.7171817  26.7372847  54.3447924  22.8651619
  27.1058583  54.2587137  24.3306756  32.6377010  44.6643972  66.6632318
  32.0736051  45.3300047  67.0569277  33.4684229  44.7469902  67.1315384
  23.0388808  78.4741068  51.9365883  22.6637435  78.6167717  52.8055859
  23.2413769  79.3529606  51.6159010  13.4845078   4.8617673  21.8323660
  13.7755716   4.7251245  20.9307885  14.2608809   4.6859753  22.3639417
  21.1216092  77.7381611  69.4865799  20.6931877  78.5900211  69.4028282
  22.0570588  77.9344368  69.4351912  82.1361256   2.5691321   6.2594271
  82.1078014   3.4051430   6.7247385  81.9041157   2.7891928   5.3572220
  70.4019070  78.4256601  24.6766806  70.0526619  79.3029976  24.5200181
  71.3112879  78.4736919  24.3818069  11.4749038  58.4946585  23.5297132
  11.5775442  58.6542177  22.5915027  12.3566175  58.5970449  23.8879466
  82.7304554   8.1229985  12.2559166  82.3157215   7.5893044  12.9337037
  83.0851841   8.8763869  12.7279437   8.6404651  63.4342241  52.3355293
   9.1171706  62.8121090  51.7860222   9.1730219  64.2293215  52.3145819
  81.6556644  70.8004999  15.7786512  81.1495495  69.9885798  15.7492149
  81.2427521  71.3151169  16.4721298  75.9037828  42.9564857  14.7819626
  75.4279995  43.7167072  14.4474173  76.4391851  43.3039093  15.4953134
  45.6352234  28.7289286  60.9067202  45.6903219  27.8121972  61.1765385
  45.1663446  28.7053132  60.0725603  10.6933951  22.8115416  31.1099672
  10.4136109  21.9292021  30.8661890  10.3051662  23.3785748  30.4436469
  21.4132214  26.3983154  31.3469124  21.1189270  25.5021453  31.5096998
  20.8485293  26.7112041  30.6401920  33.3135128  73.2858038   4.5396253
  34.1902137  72.9379416   4.7027814  33.4647489  74.1043711   4.0670782
  78.5268164  55.2479601  56.9761229  77.7264500  55.4893255  56.5098715
  79.1737270  55.1076412  56.2847090   1.0393467   4.7617891  14.2419970
   0.5357740   5.5485547  14.0330803   1.6118056   4.6358529  13.4852517
  23.3207202  23.7500882  67.4519873  22.3696375  23.8567233  67.4345922
  23.5306907  23.3363008  66.6147757  66.3447666  76.9270802  25.7140994
  66.5836382  77.7855062  25.3644204  65.6469488  76.6187048  25.1360130
  41.6261244  71.4218712  13.6234987  42.1490526  71.5711880  12.8357935
  40.7255745  71.3601875  13.3050120  10.9196031   3.0519119  14.0856099
  11.5549552   2.6893306  13.4682822  10.6326628   2.2997504  14.6034431
  55.5993176   5.2934158  40.3961611  55.3127146   5.8355343  41.1311436
  55.8108854   5.9202474  39.7043872  26.5195370  79.2413521  66.3641834
  26.3172245  79.9207449  65.7209635  27.4753451  79.2372227  66.4156151
  86.2525749  50.6082392   1.6437134  85.5311108  50.0460625   1.3614386
  86.0065746  51.4829206   1.3426456  31.6756272  76.7491627  61.6177702
  31.4562893  75.8224297  61.7141199  31.1698151  77.1874142  62.3021126
  26.3072777  74.6919775  55.8035564  25.9623003  74.5845461  56.6899443
  27.2259545  74.9285984  55.9311342  27.6021171  61.9719172   5.5478704
  27.2604942  62.0476770   6.4388174  27.9884124  61.0968161   5.5130810
  44.7464180  19.5444405  25.6304193  45.4950476  19.7977257  26.1704493
  45.0541878  18.7852478  25.1353097  14.1795051  64.8099136  45.1829338
  13.9637816  63.8939667  45.0076294  14.6653259  64.7879982  46.0073900
  19.5501387   0.4467337   6.3439012  20.1966262   0.9801112   6.8062818
  19.3852675   0.9224619   5.5298173  82.9804420  58.1922960   7.9160792
  83.7750149  57.6585531   7.9187840  83.1107616  58.8194370   8.6273730
  86.2007430  52.2887754  18.4132421  85.9846563  52.4696255  17.4984574
  87.0427506  51.8351078  18.3752739  56.6298246  45.1581097   6.0714942
  57.2805834  45.0068951   5.3860158  55.9283113  44.5365715   5.8770758
   4.5397511  14.5421207   4.1543809   4.5121822  13.9737964   3.3846545
   4.3271121  13.9637744   4.8868641  11.9836569  17.3255539  17.9445457
  11.4118922  17.4801421  18.6964905  11.6158545  16.5509129  17.5192392
  83.4389305  26.3349724   3.2890150  82.8351784  26.9765687   2.9147646
  82.8731823  25.7086492   3.7405497  79.3670511  37.6809216  12.4164748
  80.2607918  37.3762584  12.2594821  79.1988373  38.3041573  11.7097116
  12.1825945  34.2601013  16.4172053  12.4047911  35.0908661  16.8375528
  12.1351147  33.6321115  17.1380401   5.8272707  29.4270802  14.6002126
   6.1131293  29.8163533  15.4266417   4.9204916  29.7168016  14.4999862
  13.5303378  26.4699960  60.1054907  12.6554990  26.8419576  60.2174473
  13.7047482  26.0157394  60.9297895  16.7235076   3.6666319  34.2168713
  16.9819260   3.3588639  33.3481193  15.7972741   3.8903779  34.1259885
  34.3812466  40.0654793  64.5966291  33.6586285  39.4745040  64.3849564
  34.0905476  40.5271673  65.3831196   1.6718617  43.6589670   5.6235725
   1.4695507  43.6304379   6.5587127   1.1017519  42.9955721   5.2348328
  73.3931255  24.5495772  10.7360578  73.7954378  25.0381184  11.4541841
  73.4604502  25.1343656   9.9812597  81.0942936  18.7943935  17.3015547
  81.4493752  18.3741546  16.5182602  81.7973042  19.3689513  17.6046789
  51.1409283   6.1037391   3.4252462  51.7301607   5.8800209   4.1456509
  51.2002230   7.0564681   3.3543724  20.9580016  22.4739742  48.3686399
  20.8295155  21.8011546  49.0372467  21.0671687  21.9839787  47.5536442
  14.5369601  39.9714255  69.6814346  14.2762315  40.5707598  68.9821100
  13.8865983  39.2697835  69.6504211   4.9786687  18.3369493  30.7603073
   5.7092071  17.7933037  31.0552573   4.4156727  18.4197032  31.5299964
  51.2414408   4.6392530  61.4297819  51.8961191   5.0604242  61.9867754
  50.4242229   5.0932240  61.6354418  69.0089417  33.7570310  24.1448665
  69.2603159  34.1676283  23.3175492  69.5523071  34.1911530  24.8025322
  35.3801250  80.3219318  61.0881853  35.6471801  81.2141132  61.3093567
  34.4234681  80.3532314  61.0804415  54.7680426  29.8101306  69.8159361
  55.2079487  28.9783216  69.9914646  54.4742966  29.7387481  68.9077234
  16.2521851  68.3275652  59.3454790  16.3274002  67.3902130  59.5242023
  17.1571553  68.6311674  59.2741537  23.8793111  73.4145546  41.2921524
  24.2502832  73.2333803  42.1557426  22.9429317  73.5306025  41.4532661
  83.6792755  22.3317194   4.6422097  83.5960579  21.8632364   5.4727709
  83.9681721  21.6650343   4.0190750  22.8795862  37.8018498   0.3771816
  23.5510206  38.3496952  -0.0293567  23.2375884  37.5830460   1.2375256
  37.0015621  73.3026981   9.8285288  37.7459335  73.8426399   9.5628041
  36.5907931  73.0391455   9.0050960  76.1158895  39.3157005  11.6269767
  76.1348820  38.3790708  11.8234324  76.5886784  39.3963122  10.7986033
  44.5398855  12.0077634  35.0921941  43.8980532  12.4241173  34.5169282
  44.2726564  12.2645557  35.9747362  72.1749592  25.0834775  25.3172922
  72.5304937  24.2181754  25.5199742  72.7873278  25.6956196  25.7253575
  70.3015232  56.8210840   5.6547326  70.4747725  56.5465450   4.7542644
  69.6633148  56.1862183   5.9801054  12.5667512  21.2553310  13.8291097
  11.7895341  21.5961266  13.3863628  13.3017313  21.6582942  13.3668792
  83.1238079  57.5205040  37.9044557  82.4934769  58.2228231  37.7442908
  82.5847912  56.7595005  38.1202459  21.2180614  16.6147447  18.4421301
  22.0967126  16.7620599  18.7921333  20.6306958  16.8831515  19.1486645
   2.1598947  63.5253334  53.8739300   2.5652283  63.2752800  54.7042370
   2.3867287  62.8153992  53.2732821  17.4216545  23.9551640  47.6809263
  16.6175342  24.4020176  47.9453945  17.2245371  23.0245233  47.7871513
   6.6479337  12.3790085   2.7804011   6.8344420  12.4450386   3.7169302
   7.0273811  13.1731188   2.4040481  19.3357241  35.8618617   4.5151684
  18.8352549  36.4798450   5.0479549  19.9783921  36.4048696   4.0587115
  63.8276196  28.0579114   6.2668902  64.2508078  27.2415924   6.5329111
  63.9063072  28.0686975   5.3129911  71.8967152  31.1979270  13.1143463
  72.0591116  32.0261550  12.6627934  71.0153770  31.2911010  13.4759927
  14.9720430  31.8689919   4.7008097  14.7047496  31.6080618   3.8195029
  14.3672645  31.4068103   5.2812099  17.5014746   5.8491498  21.4242530
  17.7174103   6.2228054  20.5698633  17.9795623   6.3922375  22.0509267
  68.3169508   0.5855617  33.2222104  67.8661537   0.5778148  32.3778439
  68.3745813  -0.3368286  33.4714222   1.8141899  13.6057425   7.4988282
   2.2709286  14.0381205   8.2204038   1.3133529  14.3051457   7.0790309
  75.3443384  71.7991304   2.5884897  74.4830847  71.6086817   2.9602525
  75.1555157  72.2091150   1.7443989  84.5683002  69.9254704  40.9569359
  84.8291683  69.9946499  40.0385666  84.4263649  70.8305025  41.2344313
   8.7019181  20.3216028   4.6867344   8.9848632  20.7974696   3.9058861
   8.4612006  19.4532299   4.3639076   1.2055045  32.7067733  23.3007002
   1.1672124  31.9369841  22.7330828   0.3795806  33.1634641  23.1409645
  38.8308501  41.5183020  69.6298361  38.1714463  42.2112608  69.5947790
  38.4471679  40.8511448  70.1989746   5.3642380  17.3686445  10.1290774
   4.5160803  17.7656543   9.9309778   5.1981455  16.8182003  10.8943594
  17.2547901  59.6893167  17.7249932  17.9935825  59.2067242  18.0958319
  17.6018798  60.5649996  17.5548637  68.2429647  18.9274442  29.0495491
  68.8113451  19.6914220  29.1470838  68.6936283  18.2310832  29.5272684
  70.4686975  13.0301821  58.2462406  70.0132275  13.8414454  58.4712505
  70.1969337  12.4078929  58.9208746   1.8521291  12.7824104  51.3699579
   1.4936894  11.9116163  51.1982918   2.1569586  13.0885983  50.5158138
   5.5114740   7.9386526  11.0173726   5.4468185   8.8894808  11.1066842
   5.0148112   7.7382833  10.2240193  30.4015470  16.6479373  44.1005564
  29.7023678  17.2082448  44.4373560  30.4043508  15.8904850  44.6857834
   5.9257704  51.1387873  31.2095571   5.3402036  50.3845978  31.2769103
   6.5529788  51.0194826  31.9227242  69.5963383  73.1507206  13.0201602
  69.4335699  72.2246981  12.8406692  70.4809189  73.1720448  13.3852506
  32.1810722  43.0635166   2.1775773  32.7556157  43.1796646   1.4208457
  32.7175260  42.5930405   2.8156236  56.0807657   9.9423224  60.3351498
  55.8644485  10.8465993  60.1077223  55.2665710   9.4588453  60.1952648
  68.1269884  51.6770792  14.9747813  67.3885012  52.2455978  14.7564697
  68.9013577  52.2057819  14.7822714  53.8192606  16.5509689  63.1639194
  54.6555042  16.1219668  63.3452606  54.0315771  17.4835920  63.1269121
  58.2827377  21.8396878  26.1300659  58.8495255  21.8696404  26.9008327
  58.6970139  22.4344397  25.5048656  72.2491169  51.1849403  47.6827240
  71.6851473  50.7725763  47.0284081  72.5571823  50.4589176  48.2251406
  20.7736540  69.2153263  55.8517122  21.5596151  68.6752415  55.9342146
  20.9521890  69.9826765  56.3953400  53.0521536  34.0188694  10.2682853
  52.7980614  33.3456540  10.8995140  53.4339190  33.5310793   9.5385253
  23.4545803  20.6435776  14.3636024  22.5564766  20.6060100  14.0346169
  23.8471460  21.3858247  13.9040470  79.5111132  36.7972541  62.1007490
  79.5790768  36.2147975  61.3442039  79.3445873  36.2118459  62.8395271
  56.7431402  81.0255814   9.1797751  57.4027205  81.7183399   9.1441619
  55.9600163  81.4205551   8.7964404  64.0643549   0.5756220  63.9629745
  64.6097565   0.7816768  63.2038212  63.1731129   0.5417044  63.6154604
  43.4406614  65.0170803   5.5904603  42.8143167  65.6912374   5.8539611
  44.2567062  65.4941177   5.4396695   2.0055975  20.6452012  38.1291962
   2.7471647  21.2349725  38.2651353   2.3946333  19.7707534  38.1142449
   5.7880569  53.4557009  40.4399872   6.6403842  53.8639736  40.5919123
   5.2037549  53.8802147  41.0681677  84.0240097  46.2745667  24.0179563
  83.5064507  45.5251980  24.3125844  84.7200775  46.3560915  24.6699333
  39.9173307  11.3673055  17.7190459  39.7669721  10.8472621  18.5084629
  39.2503619  11.0651398  17.1025372   6.8212026  53.3012295  17.5828850
   7.4545598  52.8046751  17.0646894   6.9479960  52.9895067  18.4789789
   2.4068478  39.3234801  34.7905636   2.1111283  38.4150100  34.7317123
   1.8912859  39.7864413  34.1301870  35.1641798  62.9659748  61.1090326
  34.3722343  63.4672451  61.3034153  34.8569369  62.0662451  60.9980536
  82.8466511  16.1940002  15.2975869  82.4372768  16.9048595  14.8043120
  82.3095894  15.4262638  15.1016951  84.5575047   8.7383127   1.6404615
  83.9480019   8.8575071   2.3688358  84.6725464   7.7901638   1.5771359
  79.7065496  77.0608425  15.1715052  79.9599600  76.2941504  14.6575022
  80.4553509  77.2226095  15.7454073  61.5986252  62.7334356  56.5089083
  62.0778751  61.9097185  56.4192772  60.7820940  62.4892712  56.9446754
  34.5221663  69.3070078   8.9180589  34.1713023  70.0308084   8.3991814
  34.9522185  69.7310829   9.6606553   1.9440784  24.8780799   4.5182884
   2.3058042  24.4796467   5.3098923   1.0109352  24.6670318   4.5488495
  79.5861912   1.3743240  64.8368740  78.6727142   1.2173259  65.0759029
  79.9010801   0.5262405  64.5240879  77.4944830  45.7779837  11.7523909
  77.9427767  46.3295794  11.1112928  78.2011175  45.3517342  12.2373748
  76.9820547  53.9710379   1.3685767  77.4669600  54.3160725   0.6188777
  76.6313457  53.1346130   1.0625920  14.2847025  36.2101579  30.3488421
  13.7521815  36.8336868  30.8426690  14.8653340  36.7572689  29.8199105
  10.1888216  14.4539368   4.1181868  10.2389848  13.4980702   4.1121972
   9.2672449  14.6443212   4.2933530  48.5965109  70.6917334  51.9667912
  48.7192249  70.0477886  52.6642895  47.8992081  71.2632084  52.2883797
  18.5079288  65.9052324  65.1199627  17.5678217  65.7345486  65.0625324
  18.6593533  66.1034489  66.0440922  81.7749023  35.8991981  20.5967546
  82.5398445  35.5152893  20.1681423  81.4358234  36.5299010  19.9615598
  73.6143255  66.9189692  17.3616076  72.9301262  67.2593212  16.7851794
  73.1487799  66.6517353  18.1541264   1.1282846   7.7553159  15.6038713
   0.7742225   7.7876973  14.7151506   0.3629142   7.6165158  16.1617017
  24.4483995  27.3751712  34.8808241  24.3134451  26.8211460  35.6496382
  23.5742307  27.4811602  34.5055532  13.1899679  43.8673449  26.1758971
  12.4816120  44.4587183  26.4303374  13.1947398  43.1930780  26.8552876
  62.8297997   1.3046706  16.4463294  62.5654125   2.1144545  16.8828845
  62.1352863   0.6808265  16.6577482   0.4954785  80.8772513  26.0636139
   0.9664029  81.7054501  25.9711528   0.1282877  80.7122678  25.1951766
  79.3626547  24.9014187  10.1164556  80.0656605  25.0641990   9.4875491
  79.2483091  25.7368708  10.5694187  61.9232082  65.4672289  56.5753841
  61.9390202  64.5105982  56.6044855  62.0262766  65.6803703  55.6479263
  35.4550743  76.0357714  24.1069841  35.3961539  75.5280828  23.2976532
  35.2122688  75.4172182  24.7959471  80.9557629  56.1350489  51.5187979
  81.6543484  56.4330578  50.9362125  81.0930729  56.6267633  52.3284864
   6.8579972  39.3961048  17.8392100   6.1561143  38.7544155  17.9479647
   6.7759168  39.9719954  18.5993719  53.5937023   8.0038702  59.3886995
  52.7506161   8.4477144  59.2968369  53.9918280   8.0638444  58.5202885
  74.8371553  13.7008595   6.2041664  74.0492153  13.4768903   6.6993648
  74.6120596  14.5130372   5.7503688  63.4280586  36.8437481  12.7564609
  63.4409285  36.3062406  11.9645309  63.1279373  37.7023840  12.4582994
  32.2077060  81.6617298  19.9193394  31.8132472  81.2491989  20.6877470
  33.1474805  81.6574287  20.1011014  19.2002439  62.9452038  26.3537264
  19.8591852  62.9025316  25.6607556  19.6593416  63.3362961  27.0970345
   3.5289794  28.6708999   1.3585521   4.3651146  28.2161283   1.4600036
   3.7607986  29.5146990   0.9706116  15.8555114  40.1876545  26.4628005
  16.2158906  40.8483839  27.0542359  14.9221921  40.3942347  26.4130831
  32.3786998  51.9818115  69.7195959  33.3272934  51.9069147  69.6157074
  32.2358441  52.8965902  69.9625063  84.3544579  35.0110531   2.4702162
  83.4654140  34.7078085   2.6542750  84.2406082  35.9049988   2.1475253
  48.2190800  32.2144842   4.9690038  47.6523781  32.9008555   4.6169084
  48.9070463  32.6882577   5.4364121  43.5815477  58.6188316  25.2027893
  44.2945671  59.0361977  24.7194266  43.2353783  59.3119431  25.7649255
  13.1876040  27.2201514  50.2729273  13.5785842  27.3368716  49.4070482
  12.8673220  26.3181257  50.2714825  42.7564192  20.0438738  67.7005768
  42.3453093  19.1950488  67.5371265  42.0226002  20.6511593  67.7951717
  22.4418354  26.9993377  18.8754761  23.1824732  26.8223476  19.4554436
  21.7770147  27.3841238  19.4466019  -0.1714795  37.3251295   4.7233510
  -0.2909904  37.9804635   4.0359756   0.6172750  36.8482590   4.4651014
  27.9622269   1.6493101  12.5543547  27.3812747   1.7509373  13.3082771
  28.6284208   2.3264341  12.6723397  23.7025666  76.8654823  58.0785847
  24.6400952  76.8099546  58.2634926  23.5834360  77.7386475  57.7049255
  21.5724254  37.5454569  17.0883131  21.3955855  38.4751892  17.2316897
  20.7262945  37.1176577  17.2197843  32.3857331  25.9487629   5.6594753
  31.7355537  25.3479481   5.2954483  33.2257318  25.6067801   5.3533983
  15.6964648  18.2921922  12.6876163  16.1957538  17.5789940  13.0854738
  15.4603696  17.9642940  11.8198752  28.4903216  59.3034220  22.7777719
  27.6352262  59.6441412  23.0403614  29.0420222  60.0809574  22.6923656
  12.4714911  18.9090168   5.8398324  12.3160899  18.1209958   5.3191549
  12.8406131  18.5844493   6.6611946  33.0751991  32.9176307  31.1502409
  32.1663833  33.1168199  30.9252810  33.0117345  32.2967339  31.8759775
  16.7511129  73.8312435  68.4097958  16.4180756  74.3895102  69.1124010
  17.5906050  73.5087585  68.7376547  85.2848530  25.6765866  20.9052706
  85.5523872  25.1905179  20.1252747  85.8716011  26.4324832  20.9293938
   5.3589195  44.1933155   9.4597048   6.1266851  43.8748312   8.9850098
   5.7178146  44.6130562  10.2415252  65.4403114  81.4119911  62.5581980
  65.0729752  81.1608028  61.7107296  64.6869564  81.4357662  63.1482172
   8.9721161  25.7835627  12.4519074   8.0821216  25.4430389  12.3614371
   9.0334845  26.4722896  11.7899990  80.5114841  29.0033150  13.8641644
  80.4471016  28.0761862  14.0933359  81.2660599  29.3208051  14.3602026
   2.4972662  64.3712759   5.6893063   3.2622641  64.9367237   5.5831093
   1.9532417  64.8230028   6.3344502  29.6904254  29.2966747  16.9792664
  29.2355847  28.7238741  16.3618100  28.9995027  29.8452854  17.3505914
   1.5943341  40.9450197  18.3212435   0.6895968  40.6371689  18.3751941
   1.9909348  40.4044437  17.6380765   6.8525481  37.1562767  15.1666272
   6.6155469  37.9485011  15.6487501   6.1308515  37.0252514  14.5516324
  41.0032511  80.4228783  58.6963654  41.7369175  80.9604645  58.9946318
  41.2245464  79.5362854  58.9813519  48.8218451  77.9809713  55.3805685
  48.3271122  78.2188320  54.5964146  49.6698809  77.6863337  55.0485229
  17.9096580  66.4794779  67.7775478  18.2369101  65.6520796  68.1304693
  17.4108922  66.8662453  68.4971857  13.1078565   1.7836447   5.8433616
  13.8813889   1.5014334   5.3552675  12.3861039   1.2890226   5.4552186
  10.9660316  21.3816571  20.9291887  11.8531799  21.4009595  21.2881160
  10.3969431  21.3561344  21.6984224  75.2050638  78.5411596  63.5470724
  75.4701853  79.3338203  63.0805635  75.7847929  78.5058117  64.3079233
  45.1763248  67.4626255   4.0909421  46.0065937  67.0376348   4.3060479
  45.4281902  68.3181763   3.7433374  -0.1564474  24.9231815  50.1085806
  -0.3996253  24.0753746  50.4804993   0.6582192  24.7525644  49.6358871
  23.9401603  53.2381630  17.8399467  23.3463407  53.0620337  17.1101606
  23.3651257  53.3316040  18.5994446  70.3935432  81.0161972  48.1951714
  69.7090292  80.4250336  47.8818035  70.0808859  81.3130093  49.0497971
  57.0827293  74.0287352   4.4870123  56.6500187  74.6970701   5.0183570
  57.2754526  73.3212900   5.1023221  65.0921535  59.2016602  66.0335207
  64.9395084  58.8296652  66.9021702  64.8749447  60.1290321  66.1285686
  34.9022222  21.9795108  18.2527733  35.4375720  22.2783136  17.5176895
  34.3783832  21.2640381  17.8923225  77.0285654  10.0167048  46.6744041
  77.7172327  10.2099979  46.0383129  76.4260197  10.7574475  46.6075659
  11.3118281  50.3790931   0.5080216  11.2066473  50.7277159  -0.3772075
  10.4400982  50.0636343   0.7463543   1.4738286   1.0443792  14.8487401
   1.0928893   1.5790093  15.5453670   2.2913790   1.4892504  14.6252847
  82.8701115  72.2859383  65.9790421  82.8660297  72.9283381  66.6886425
  82.4795055  71.5013981  66.3639545   9.1327447  10.6988335  57.6013756
   9.7181207  10.1838303  58.1566572   9.1577196  11.5784693  57.9780006
   1.9852002   6.6013068  64.6566820   1.4813139   7.3637348  64.3720150
   1.5087695   6.2699485  65.4178953  43.0873394  67.5836372  24.1034102
  43.7555265  67.8573704  23.4750557  43.4162664  67.8862238  24.9498630
  24.5035434  16.8572700  62.2739506  24.9728155  16.0637951  62.5316525
  25.1122570  17.5696707  62.4693632  23.7111187  12.9574442  67.8848171
  23.6751580  13.3593285  68.7528181  24.2868829  13.5309386  67.3790169
  54.7235966  29.8054671  29.8062968  54.0367126  29.9792242  29.1626883
  55.0600910  30.6713247  30.0371456  20.8163571  44.3378115   9.3356907
  20.5870485  44.9292707   8.6188757  20.4529428  44.7555733  10.1164842
  10.2746093  38.8385677  13.8786769  10.0701594  38.9979601  14.8001027
  10.0816107  39.6689415  13.4434009  14.8192286  71.6487360  52.7734375
  14.8736918  72.1885443  53.5620260  15.4960346  70.9823418  52.8921318
   5.7427168  20.9624505  54.8055363   5.9033322  21.7299438  55.3545284
   5.0622076  20.4744673  55.2692318  81.6564369  33.5507131  44.3528318
  82.2369862  32.8648353  44.6826172  81.4289951  33.2667542  43.4674644
  51.7935562  34.4218874   0.5038530  52.0389414  35.3324771   0.3400090
  52.6276398  33.9645243   0.6104248  14.8044193  57.6161051  64.9293375
  14.8002183  56.7723751  64.4773006  14.1068184  57.5423813  65.5806065
  73.7746048  62.6006079  63.2058907  74.1582489  62.7744055  62.3463297
  73.4599209  63.4538031  63.5046673   1.4309679  29.0464234  55.3382254
   1.5148208  29.6657252  54.6131992   1.7560227  28.2183981  54.9847507
   9.9766463  48.7388134  26.4380574  10.8787322  48.7081194  26.1194205
   9.4841546  48.2048321  25.8147216  14.8358393  58.9757872  50.0694323
  15.3634787  59.4570208  50.7068014  14.0160382  58.7911844  50.5277777
  69.2232466  47.6781940  46.1351633  68.3019114  47.9368591  46.1568880
  69.2469406  46.8378305  46.5928268  23.3939576  10.4013729  42.7133751
  24.3326569  10.2338850  42.6295471  23.0798125   9.7149670  43.3019257
  84.5922565  53.0264330  58.1637669  85.3044605  53.2256651  58.7714672
  84.1331577  52.2892284  58.5662413  11.5841115  24.8342991  41.6424227
  12.4020386  24.4268250  41.3574839  10.8983505  24.2688155  41.2871885
  19.9732101  79.9351025  39.2807508  19.3219674  80.0588799  39.9712539
  19.7809374  79.0684462  38.9227414   8.6510408   4.3047088  57.9505968
   9.5056170   3.9247519  58.1544685   8.1632829   3.5907495  57.5400019
  47.4534655  71.3522053  12.9253244  48.0210876  72.0406723  12.5788414
  47.8675604  70.5362940  12.6441717  14.8199928  38.8051796  60.1718950
  14.7092772  39.5138073  59.5380020  14.1489983  38.1649446  59.9350405
  81.5084076   3.5271713  39.2567492  80.8322620   3.0600685  39.7475314
  81.7476654   2.9283756  38.5493374   2.4980013   6.4621806  59.4177771
   2.9870951   6.9280809  60.0959778   1.5790749   6.6020781  59.6463251
  50.1159239  60.5873203  17.0577228  50.8234072  60.8315611  16.4610267
  50.5492401  60.0925398  17.7531803  70.4184771  19.2994869   7.5882822
  69.7259665  19.9580359   7.5337565  71.0992098  19.7112620   8.1205219
  84.7496510  10.4495060  52.7764845  84.5613384  11.3858724  52.7133608
  85.5307674  10.3989017  53.3274269   4.9260542  52.1927261  44.8207521
   5.4706079  52.9545021  44.6222734   4.8111206  51.7542696  43.9776754
  84.7200966   1.5640497  20.9620476  83.9666748   1.1809161  20.5128336
  85.4679680   1.0513138  20.6553984  71.1660051  29.3039250  67.6472425
  71.1313438  29.8388743  66.8542337  71.1601400  29.9379635  68.3643150
   1.4512119  37.8675056  70.6163788   0.9152721  37.9735422  69.8304033
   1.6577110  36.9331741  70.6412077  34.3494296  80.3310490   8.0604106
  35.2087712  79.9255037   7.9450774  34.2204332  80.3533649   9.0086162
  80.9571362  49.8040867   8.0923885  81.4296627  50.5213308   8.5148931
  80.0554943  50.1182652   8.0248052  70.2025080  39.0416646   9.6549010
  69.2839813  39.3037724   9.5929146  70.3768539  39.0003228  10.5951810
  47.3129272  57.3132086  -0.2275667  47.7130508  57.2181273   0.6367801
  46.6239262  57.9657078  -0.1020814  21.7232299  50.6541014   6.4234424
  22.0243239  51.1603880   5.6689578  22.5268865  50.3342247   6.8333745
  75.1102781  23.3777070  25.0104237  75.4443550  23.9093685  24.2879581
  74.3274689  22.9562998  24.6556616  65.9765911  37.4452353  70.5902195
  66.8709564  37.3336029  70.2679062  65.5460644  37.9786420  69.9221230
  32.3871319  58.0113365  70.8796113  33.1680135  57.4667599  70.7801472
  32.2593312  58.4065773  70.0172406  43.3162451  74.4323158   1.2852082
  43.9585733  74.4026518   1.9942702  43.0802965  73.5165215   1.1373085
  19.5682681  69.4303226  18.4011066  20.0786018  69.4014788  17.5918102
  19.1468728  70.2896738  18.3880329  11.0235095  29.7729969  69.2390966
  10.7360363  29.3969393  68.4071302  10.5210650  29.2996621  69.9022245
  83.3327866   8.3473331  33.5331106  82.9156780   8.9329529  34.1650128
  83.1587219   7.4684238  33.8699365  17.0856190   8.7656116  67.2525930
  16.5537310   9.4478422  67.6623392  16.4483511   8.1628263  66.8694878
  59.4454050   7.3753369  27.9532123  58.6477518   7.3640209  28.4822273
  59.2613649   6.7764604  27.2295356  21.3949800  44.1450787   5.1711541
  21.6366196  43.7749338   6.0201752  20.7534266  43.5300779   4.8156002
  50.4850864  11.0384035  68.9149714  51.0172415  10.6329882  68.2303667
  50.1741886  11.8551707  68.5245037  15.7541847  13.7657475  15.6955123
  15.7630599  14.7196209  15.6162751  16.6685116  13.5299289  15.8524442
  54.5159054  57.0451164   3.6612442  55.4199505  57.2213697   3.4007269
  54.1288519  57.9118490   3.7845123  53.3853626  75.2374983  19.9989390
  53.4163284  76.1893463  19.9027383  54.1450977  74.9224329  19.5092762
  45.7880592   3.0033174  36.5796304  45.3708696   3.8633060  36.5286064
  46.7226505   3.1947553  36.6578913   2.7135062  37.0097756  64.4806099
   2.1126716  37.4435306  65.0864887   2.1494478  36.6708803  63.7854719
  45.4921436  49.7983742  68.2206583  44.7545815  50.3890991  68.3731937
  45.2722502  49.3460083  67.4062634  14.1660225   1.0432644  51.7783833
  14.4544280   0.1844192  52.0873165  14.3326545   1.6311797  52.5151491
  52.1402836  62.7878904   0.6634384  52.8058958  62.6979876  -0.0185507
  52.5945663  63.2215071   1.3858196  76.6808319  21.5842938  19.6225619
  76.6092062  22.0353556  20.4637766  75.8129787  21.6729403  19.2286003
  36.7211366  44.9901485   0.6293020  37.0412230  45.8524609   0.3643473
  37.4788117  44.4132757   0.5324547  79.2613840  14.3692052  57.6428699
  78.4918880  14.9359417  57.6969290  79.1437244  13.7372732  58.3521318
  -0.1371659  25.0687718  62.8359699  -0.0985949  24.2698431  62.3101807
   0.5385761  24.9491858  63.5032797  62.4840212  69.4669056  45.2424622
  63.3316183  69.1897583  44.8946095  62.6751232  69.7605371  46.1332464
  42.0095778  42.3633814  67.2377539  42.4786425  42.2011805  66.4192820
  42.3801804  41.7328072  67.8552198  52.6274776  55.8976269   1.8542105
  51.9032478  55.3188133   2.0923229  52.7752399  56.4303017   2.6356566
   9.2469817  54.2326450  66.8387127  10.0107193  54.5612764  66.3644361
   9.4484800  53.3125257  67.0090199   8.7349612  59.6033430  67.6875305
   8.4513742  59.3129015  66.8206692   7.9412109  59.5735025  68.2216692
  22.1344948  70.1778984   7.1983701  22.7906418  69.4835329   7.1387643
  21.7291498  70.0513983   8.0562317  61.7700863  24.1957355  66.4127779
  61.6104650  24.2341733  67.3557901  62.4893951  23.5715294  66.3168621
  71.8349600  17.0169961  21.9889808  71.3971901  17.7447975  22.4304485
  71.9713306  17.3270655  21.0937190  55.6192923  67.3890734  10.7747209
  54.7953606  67.8716135  10.7074749  56.0154867  67.7036953  11.5872943
  15.8851027   4.2802060  48.0045128  15.6168306   4.9430442  47.3681879
  16.7523408   4.5634231  48.2941961  15.4866767  28.8841605  43.1558132
  14.7255647  28.4926867  42.7272177  16.0122466  29.2350745  42.4368763
  79.6364880   1.1954208  10.8301377  79.5444727   0.4007593  11.3557589
  80.0922585   1.8109229  11.4043021  43.5249329   8.4746206  14.0490234
  42.7846813   7.8678608  14.0388668  43.8449192   8.4771830  13.1468964
  69.0400743   5.5908531   1.4899828  69.4844675   4.8778746   1.9486889
  69.6474457   5.8436430   0.7946894  83.2334900   1.7182535  69.7674322
  82.7514839   2.5439602  69.7214890  82.6067734   1.0952221  70.1352549
  36.5305114   7.8372264   2.0902467  36.2891960   6.9116080   2.0551783
  37.4375868   7.8368473   2.3959407   4.7088063  76.4020014  62.1961069
   4.6524581  75.7690811  61.4802361   5.6129402  76.3361502  62.5034142
  71.7810345  55.6959486  58.6403227  72.7349043  55.7352924  58.7097216
  71.4789200  55.6001616  59.5435333  39.3341088  67.7961683   8.6475462
  38.8175917  67.6563120   9.4411969  40.1450443  68.1993437   8.9574915
  36.0401702  57.7065182  31.7630029  36.0763216  57.1103954  31.0149646
  36.8205500  58.2532072  31.6715336  12.3674750  37.9665971  62.4734735
  12.2002816  37.8810024  61.5348816  11.7405248  37.3709083  62.8837395
   9.8595089  22.6144195  45.5682135   9.3349278  22.0180488  45.0339985
   9.2784208  22.8674150  46.2855434  35.2857447  27.4683881  60.2397728
  36.2022662  27.3785806  59.9787045  35.1004148  28.4027672  60.1458740
   0.1768733   9.6601468  54.7681522   0.3859103  10.4614139  55.2482605
   0.2231159   8.9672363  55.4269123  38.9127612  10.1035500   2.3115876
  38.2221603  10.3079331   2.9420885  39.2020583   9.2228979   2.5503150
  83.0335140  47.6173401  15.3211677  82.7316093  47.7261257  14.4193637
  82.4256516  48.1420040  15.8421850  16.3321090   7.7769107  59.3202400
  15.7690704   8.4618092  58.9594984  16.9301832   8.2419729  59.9052668
  60.2481270   9.4491458  51.6184187  60.2650213  10.1170039  50.9329176
  60.5389977   9.9076360  52.4067163  73.5891342  22.9814577  66.7266560
  72.7779245  23.0293131  67.2324944  73.6832237  22.0533657  66.5121174
  82.3355865  77.4474621  16.3095307  82.9368591  78.1505013  16.0636973
  82.6927853  76.6674280  15.8850420  22.8139138  44.5339918  50.2756834
  22.8749943  43.6945581  50.7315874  23.4520411  44.4677305  49.5653057
   6.6049165  41.9888496  48.0669689   7.0636994  41.9381380  47.2284126
   7.2679573  42.2975922  48.6844540  61.4329576  11.7821217  42.9293871
  61.2727928  12.6989579  43.1529713  62.3121166  11.7779624  42.5508499
  26.1872172  66.1453247   9.6062481  26.7627954  66.5129757   8.9355946
  25.7519460  66.9058466   9.9914443  44.8047113  69.7706604   9.4023556
  44.4341755  69.5963478   8.5371673  45.7289553  69.9545527   9.2344636
  42.4773312  33.9821982  60.9647417  41.7455339  34.5360065  61.2367821
  42.4121094  33.9508915  60.0102806  32.1149206  77.2428274  14.3360305
  31.6603565  76.4367771  14.0913177  31.4344549  77.7933788  14.7234464
  24.7222066   1.5503365  54.9191856  25.3609347   1.1282066  55.4936981
  23.8830709   1.1632095  55.1686192  14.4198954  80.0863171   3.5932231
  14.9477565  80.7042122   3.0874580  13.5440826  80.4724026   3.6041296
  34.0632558  30.2313948  65.7289839  34.8018479  30.7315660  66.0761786
  33.5220718  30.0404096  66.4950609   6.1207026  38.8796711  70.3265905
   5.2930874  39.3469262  70.4404163   6.2356830  38.3937359  71.1432171
  30.2917099  73.4904671   2.9782599  30.1894259  73.1915712   3.8818264
  30.2234864  74.4437075   3.0321336   0.6206731  57.1771574   4.9599400
   0.3800764  57.4937820   4.0892538  -0.2102194  57.1185923   5.4315537
  52.1371412  65.7184362  19.4968545  51.4794350  65.0659084  19.7374165
  52.3310375  66.1759520  20.3149700  82.6575470  11.4853990  40.9146738
  83.4764767  11.1081207  40.5933619  82.4788761  12.2128046  40.3186989
  55.9059429  46.1186600   9.5132184  56.3204098  46.6310072   8.8189930
  55.3743219  46.7529297   9.9941683   9.9580395  26.3203382  32.4604821
   9.4700205  25.7289314  31.8875003   9.5484686  26.2141132  33.3190846
  77.1409035  43.5807371  49.3154478  77.9005480  43.2379007  49.7862291
  77.4945593  44.2823935  48.7687826   0.2380337  60.7479143  67.0707417
   0.7277410  60.0270128  66.6748667   0.1829340  61.4079714  66.3797092
  39.0843678  56.7870855   4.8730910  39.8262978  57.2830153   5.2192491
  38.3131933  57.2567987   5.1907229  56.0738325  63.8351107   0.8872118
  55.8772326  64.1959286   0.0226944  57.0259333  63.8988924   0.9625067
  23.7507176   4.4164515  49.0482378  23.2274532   3.8145730  49.5775461
  23.2207704   5.2118266  48.9956331  56.0301828  76.0681915   6.0132295
  55.3785181  75.9842205   6.7092991  56.8356514  76.3149738   6.4677167
  29.8262763  30.7588363  61.8037271  29.5036459  30.3228736  62.5924444
  29.6137047  30.1548243  61.0922384  23.1654906  33.5789061  37.1109748
  22.8714991  34.4167399  36.7534328  22.7909851  33.5495687  37.9913831
  52.6354313  37.5858569  61.1065626  51.7063046  37.5845218  61.3366652
  52.6874495  37.0469999  60.3171539  35.8148432  48.4160042  40.1159716
  35.9029388  48.6610508  39.1948724  34.8759842  48.2744884  40.2374268
  42.1989346  38.7892079   3.0779228  41.3558340  39.1075802   3.4004980
  42.2306395  37.8732586   3.3540851  56.6856432   9.3179423  15.9514534
  56.5359545  10.1489437  15.5006075  55.8333492   8.8823903  15.9401286
  33.3864427  38.8975525  51.2326765  32.7099609  38.6966944  51.8794107
  34.1909719  38.9786625  51.7449141  80.7483864  64.8332024  21.1909580
  80.4623699  65.7449579  21.1350846  79.9369764  64.3323231  21.2744045
   5.0763518  52.2429562  57.5693369   4.2888039  51.9620562  58.0352688
   5.7964563  51.8283176  58.0444717  75.0520039  63.6881971  20.1795959
  75.6308794  62.9679918  19.9297190  75.6450319  64.3907642  20.4459476
  30.7685232  12.5590074   7.3828357  30.3404188  13.3019423   6.9573861
  30.4304194  12.5683808   8.2782853  71.3558865  65.2638817   3.1998736
  72.3044634  65.3617382   3.2826665  71.1539412  65.6130457   2.3318109
   4.2262140  39.9875140  45.7991695   4.5231858  39.2886639  45.2163744
   4.7742921  40.7384682  45.5713320  54.6642303  73.4490824  21.8417883
  53.9698172  74.0528774  21.5782356  55.4525995  73.9908886  21.8757296
  84.0497684  28.0228186  37.1620512  84.4414711  28.4946394  36.4270782
  83.7442493  27.1989989  36.7823005   3.1483331   2.1190701  32.6954603
   3.8799807   1.9091202  32.1150780   2.5220865   2.5774798  32.1351862
  60.0056171  17.9469550  70.3320265  59.3098211  18.5885799  70.4749250
  60.4221296  18.2231379  69.5156479  73.1057072  64.9267817  64.4326353
  73.7965727  65.2099705  65.0315857  72.3167849  64.8970985  64.9738836
  72.4069977  14.9179888  24.8695540  71.5268087  15.1705468  24.5907903
  72.9740286  15.6094074  24.5280075  50.4622078  39.2977667   5.4857916
  50.0724125  40.0448036   5.9399140  51.3290405  39.6047187   5.2200574
  77.5198460  16.5197110  70.1457548  78.1912136  16.9808662  70.6485796
  76.7536592  16.5124750  70.7194614  52.2038078  34.1148663  17.7528095
  51.2514400  34.0673375  17.6693809  52.3822594  33.8044739  18.6405289
  80.3850460  18.8878787  22.8307295  79.8095798  19.2883730  22.1790552
  81.1777687  18.6623776  22.3439336  80.9615898   5.8807385   4.3555346
  80.9930897   6.1749136   3.4452045  80.7604790   4.9466404   4.2985639
  73.3432674   5.9537590   6.8208861  74.0021133   6.6231769   6.6363907
  72.7479887   5.9908217   6.0722214   7.4707466  63.3911133  67.9152727
   6.7734605  62.7396774  67.8400660   8.2796490  62.8880739  67.8211308
   8.9262301  52.9133654  57.2780275   9.1042012  53.3152199  58.1283665
   8.5178691  52.0741224  57.4904919  84.5727062  50.2231789  70.0841570
  85.0986195  50.1961088  70.8834743  84.5696735  51.1461782  69.8305893
  34.5951080  62.1507215  15.7255220  34.1842461  61.3033581  15.5540574
  35.0267100  62.0405674  16.5727639  64.9794769  45.3513479  18.5109687
  64.5470238  44.6520662  19.0010893  64.2866278  45.7268953  17.9676867
  14.6664631  44.1718292  66.7917299  15.3493786  44.4667625  67.3941135
  13.8493073  44.4686460  67.1922112  25.2046180  40.3725815  54.6410894
  25.1460695  41.0540819  53.9714909  25.0661564  39.5548105  54.1632795
  18.1376326  60.6359625  34.6572185  18.5448825  61.1330271  33.9477801
  18.2874060  61.1676979  35.4389167  64.6281672   0.2044404  18.6810648
  65.1505136   0.7409729  19.2773175  64.5171738   0.7502836  17.9026258
   1.1811073  52.0170784  61.9503021   1.1053004  51.3116741  62.5928688
   1.9772914  52.4853086  62.2014618  82.6495266  15.8630478  50.3053665
  81.8708611  16.4140689  50.2260447  83.0456161  16.1262941  51.1360550
  37.9439735  48.8736439   6.6533250  37.4751711  48.8147688   5.8208644
  37.8343916  49.7846127   6.9260097  25.6176233  51.4740801  16.6275394
  24.9641967  50.8533859  16.3050485  25.1513505  51.9943380  17.2818768
  20.2492332  40.8281469  43.0568266  19.8414302  41.6484976  43.3342409
  20.8824348  41.0895300  42.3882723  66.1606169  43.2068968  70.1647568
  67.0273256  42.9255199  69.8717165  66.2981176  43.5108519  71.0619402
  18.8016796  26.8685627  13.8394523  18.5618329  27.7761221  13.6522627
  19.7370470  26.9044161  14.0395415  74.4007921  14.8340106  27.3723197
  73.7283516  14.4315135  26.8227267  74.6665525  14.1383898  27.9737473
  61.4096498  72.7410984  14.7061360  61.1086130  72.2811651  13.9225125
  61.4025831  72.0742655  15.3928041   2.5354990   3.5063663  69.7791433
   2.1370982   3.0849713  70.5406761   2.2303000   2.9903954  69.0329123
  72.8504992  31.7618322  52.7520990  72.0568752  32.2934818  52.6909447
  72.7716446  31.1306190  52.0368481   4.2768916  37.6448894  67.3558283
   3.7510839  36.8552899  67.4834585   3.6378402  38.3279657  67.1527195
  71.1201763  61.0307932   9.5278907  71.7995024  60.3629589   9.6213913
  70.3881407  60.7025528  10.0500178  73.5124159  15.1139271  62.9219007
  73.9548874  15.9171498  62.6475191  72.9607201  14.8776889  62.1762133
   2.9241711  56.5134716  63.2658482   2.0730767  56.7975855  62.9324579
   2.8916067  55.5578184  63.2222462  83.9777565  17.9593801  57.5986004
  84.7915554  17.7722442  58.0665112  83.3480740  18.1700623  58.2880545
  21.7471838  37.8499150  64.7910452  20.9749436  38.2168436  64.3606472
  22.4879408  38.2533574  64.3385601  12.7543879  67.1923733  10.9556293
  12.2424626  67.9103851  11.3279462  12.5269318  66.4328241  11.4918995
  18.4741008  36.5303636  65.5820656  18.3853126  35.7978225  66.1917686
  17.9286301  36.2869191  64.8341179  31.2229156  64.9986887  20.1879334
  30.5039001  64.4625473  19.8535717  31.8505073  65.0348139  19.4660926
  80.5153370  14.6083784  61.0694933  80.2041054  15.0717366  60.2918911
  81.0265541  15.2606952  61.5484190  47.6206493  21.3117838  61.5026999
  46.8355417  21.0890436  62.0029211  48.3223152  21.3294673  62.1535397
  12.7227926  37.6309681  69.7926426  11.8439400  37.3944235  70.0891161
  13.2953954  37.3821211  70.5182028  85.2635860  51.0609388  66.8970633
  84.4007492  51.1933947  67.2897434  85.8798695  51.3513613  67.5694323
  39.2266774  74.4066525   8.5680896  39.9946332  74.9668932   8.6803794
  39.2887354  74.0932178   7.6657939  28.8172913  39.6239638  59.2616796
  28.6206293  38.7729239  59.6531963  28.1654048  39.7249055  58.5680723
   2.0977144   4.5866573  48.6747837   2.6940343   5.2089322  48.2583570
   1.9653425   3.9045274  48.0164433  19.4637024  77.1388531  62.5378180
  18.5242116  77.0599508  62.7032423  19.7593093  77.8113317  63.1515121
  50.4989672  80.2838993  32.1383429  50.4160070  80.1607895  31.1927247
  51.4035225  80.0389576  32.3333192  70.6449366  57.7301598   2.5012714
  70.9890795  57.1302319   1.8395440  69.7021580  57.7524042   2.3372549
   4.0193516  48.9911747  46.2856293   3.4051570  48.5383940  46.8635464
   4.5197061  49.5624781  46.8682814   4.9360284  66.8747091  57.0088530
   5.7813370  66.8837261  56.5598488   4.3093908  66.6125154  56.3344574
  22.4566555  31.2824345  40.0070524  23.1647658  31.9149947  40.1282024
  22.8078222  30.4610419  40.3508949  51.7485666   4.9824899   5.7849735
  51.4627743   5.2313304   6.6639698  52.1552420   4.1235816   5.8995289
  51.2832451  21.7676282  46.1023426  50.4814291  21.2480688  46.1605358
  51.4940643  21.7789674  45.1687145   8.4875494  25.9690905  61.1327171
   8.3107126  26.6060305  60.4404259   8.0132413  25.1830339  60.8618259
  53.4503984  31.4445615  53.5984945  53.3516359  32.0490837  54.3340445
  53.5149050  30.5806160  54.0055180  21.7073131  30.8883405  10.3522575
  21.7091322  30.8717585  11.3093126  21.0449600  31.5410256  10.1252759
  46.4003086  61.2858915  16.2301433  46.2251616  61.1400747  17.1598160
  47.0088291  62.0245934  16.2140441  22.6415515  23.5143256  50.3844309
  22.0829082  23.3018994  49.6367502  22.3180795  22.9559326  51.0913944
  83.7591743   5.7184768  22.4807811  82.9467106   5.2189994  22.5624037
  83.4873486   6.6327506  22.5610757   4.0347472  70.2893877  51.3577509
   4.9870446  70.2384186  51.2755060   3.7409461  69.3798018  51.3071203
  51.1782217  57.8622818   8.4092939  50.6262827  58.5619926   8.0600023
  50.9863710  57.8514004   9.3470073  26.8743682   6.0912842  61.0958529
  27.3453426   5.5788887  61.7530203  27.5222993   6.2555259  60.4106951
  40.7985115  36.6310096  17.8271985  40.8568525  35.9053493  17.2057104
  40.5635643  36.2168789  18.6575770   2.6444101  52.5783539  20.2168274
   2.4180312  53.1546736  19.4868684   1.8106331  52.1915388  20.4840755
  80.0159168  12.1511078  59.4039488  80.8041096  12.2113359  58.8641691
  80.2056313  12.6974571  60.1666689  30.0406289  65.8097839  69.0962696
  30.2267575  66.6198683  69.5709753  30.7887554  65.6986713  68.5095882
   3.8059929  34.6818519  35.9863520   4.0797651  33.7679195  35.9088397
   3.5219711  34.7704625  36.8961406  61.2716293  43.7932110  23.0476546
  62.1286678  43.5150957  23.3707237  61.4034462  44.6991825  22.7682495
  17.5971866  11.3456774  26.1658788  16.7549133  10.9331477  25.9744954
  17.9793715  11.5201151  25.3057981  84.6145725  22.9636383  32.0222521
  84.6673298  22.5087333  32.8627920  83.8296223  22.6074982  31.6060209
  47.9717016  61.4273691   5.8205962  48.5938168  61.8686867   5.2422839
  47.1141386  61.6200256   5.4415238  76.5738010  28.2604694  32.9543090
  75.6858492  28.5183954  32.7068210  76.8599319  27.6799536  32.2490692
  26.5657067  53.6314964  60.8881044  26.9730473  54.2735910  60.3067112
  27.2395182  52.9640388  61.0173798  81.8233967  70.0813103  66.8599367
  82.5424671  69.4654083  67.0007420  81.5513897  70.3374481  67.7412081
  19.8383868  16.5249741  56.5932226  19.9159229  16.8771541  55.7065487
  19.0661001  16.9584394  56.9564199  74.0529728  20.1758480  66.1107922
  73.1295300  20.2358460  65.8660698  74.4487333  19.6405494  65.4229975
  15.2067626  25.1698136  48.9879942  14.3735743  24.7287512  49.1538000
  14.9740303  25.9275174  48.4513807  73.6020803  72.4739885  30.6542182
  74.5499659  72.3916006  30.7588887  73.2430029  72.1960211  31.4968514
  12.8916025  46.8041277  50.1272345  12.0030069  47.0183039  50.4114103
  12.7694404  46.2414265  49.3625879  37.2498798  53.7828636  18.4657431
  37.9392338  54.4424820  18.3887613  37.0613432  53.7417507  19.4032907
  85.9631920  20.1318336  36.7252111  86.8546200  20.2879786  37.0370054
  85.4059982  20.3567123  37.4703264  80.1027012  48.3880663  42.4002218
  79.3127346  48.1963778  42.9056263  80.8013248  48.4271097  43.0533934
  18.1380081  24.1931558  44.7252655  17.3083222  24.2934060  44.2585754
  17.8885484  24.1353130  45.6475782  34.9446154  63.5477209   4.0122566
  34.9826980  64.4869375   4.1929594  34.4151759  63.1881475   4.7240368
  43.5428858  19.9528778  39.1853976  42.7437973  19.5904291  39.5679164
  43.2565928  20.7544446  38.7474966  39.1934657  59.8183537   2.7103984
  39.3062282  59.0737915   3.3012825  38.2454062  59.9011087   2.6076025
  26.1802864  41.9944286  59.2601299  26.3541985  41.4410591  58.4987068
  25.8074975  41.3980913  59.9094725  76.4544439  53.6627960  58.0981493
  76.7937517  52.7781105  57.9623699  77.2353697  54.2027664  58.2199049
  25.0420427  34.3298340  66.7961264  24.2580581  34.3321443  67.3453045
  24.8081756  33.7816381  66.0471106  29.7204542  61.0700464   0.1102240
  29.3794465  61.8844128   0.4800341  28.9697433  60.6758785  -0.3339591
  85.9058571  25.9645820  66.4347219  85.8565521  25.0856543  66.8105984
  85.5387497  26.5348768  67.1101665   9.2401999  68.1493139  39.4642115
   9.9955720  67.5711584  39.3575406   8.8784862  67.9155493  40.3190517
  60.6617546   1.7644531  48.1301260  61.5183926   1.3374208  48.1234074
  60.7830572   2.5529814  47.6012182  85.6115723  24.9889255   4.8654795
  85.4272079  24.1068721   4.5426416  84.8208809  25.4885721   4.6620470
   0.0865130  17.4722624  39.8683190  -0.3483000  18.3032036  40.0599098
   0.5031611  17.6105034  39.0177178  73.7472200  65.7889938  22.9095125
  73.8601685  66.1484957  23.7894177  74.2708254  66.3607740  22.3481393
  52.8127956  31.9210887  61.9571972  51.8881845  32.1482944  62.0557213
  53.2792330  32.7420378  62.1143961   3.8625774  29.7330666  18.5223472
   3.6659947  30.6031942  18.1752717   3.8206193  29.8391914  19.4727206
  64.4544172  14.9907255   2.4683523  63.7452984  14.9788058   1.8255159
  64.2577744  15.7419789   3.0279788  73.9056492  27.1969223  20.6406426
  74.8391867  27.0006919  20.5616832  73.6691523  27.5800443  19.7959423
  85.6423759   6.2461859   0.6486877  85.6948185   5.4297459   1.1455847
  85.2008152   6.0033321  -0.1651175  52.9023504   9.0654218   4.7106993
  52.3926115   9.6000409   5.3194547  52.3233891   8.9408785   3.9586830
  79.6500397  11.3985348  20.8094049  79.6049690  10.6454504  20.2202845
  80.4966927  11.8020046  20.6180191  40.1036787  80.8433819  45.2375746
  40.2460194  79.9927378  44.8223972  39.5134473  80.6576729  45.9678984
  24.7438741  37.8981376  53.8754034  25.2731848  37.5484872  54.5922041
  23.8398790  37.7943778  54.1724873  67.9199076  40.0714922   4.0750077
  68.5868835  40.6734753   3.7448663  68.3261871  39.2069530   4.0138304
  23.7944150   6.8238378  33.7192631  23.3483481   6.0048425  33.5036206
  23.0959129   7.4778599  33.7433743  79.3165302   1.2339700  61.6382599
  79.7141504   0.4784277  62.0710230  79.6664810   1.9908172  62.1083069
  48.5398865  29.4250464  24.8680687  49.2551851  28.8255715  24.6554422
  48.3854485  29.2915082  25.8032417   3.7001574   6.8214101   0.8964089
   3.0998090   6.1329097   1.1823818   3.1591868   7.6101476   0.8579941
   9.0170610  77.5382566  20.1170254   8.9695978  77.3876858  21.0611153
   8.2985550  78.1438303  19.9346459   8.7452328  46.7715168  66.8426228
   8.1868941  47.1584177  66.1682320   8.8291758  47.4564266  67.5060129
  47.8573370  41.5700245  67.4360514  47.8164387  41.8859148  66.5334082
  48.7934732  41.5057611  67.6251364  56.6881466  75.1613426  38.1389785
  56.0502958  74.7987700  38.7537289  56.7922401  76.0729456  38.4117079
  40.0657129  45.5718422  14.3977821  40.2900887  45.4094744  13.4815276
  40.2028275  46.5118885  14.5149899  39.7433686  74.6979904   0.0340191
  40.4870367  74.1179657   0.1975891  39.0286636  74.3217659   0.5477165
  29.5465660  18.1024718  57.2992325  30.3647757  17.6955569  57.0143032
  29.0984249  17.4174118  57.7953100  23.4724402  51.0752678  68.8541889
  23.3544540  50.2196789  68.4415436  24.3463826  51.0353756  69.2426062
  50.7217884   8.1318140  35.4824781  49.9324179   8.4139210  35.9445858
  50.4688358   7.3145187  35.0532055  85.6844616   9.7811520  22.0058680
  85.3608608   8.9384764  22.3243189  84.9074459  10.2214479  21.6614580
  11.0935497  24.2276740  16.2426472  11.1485112  24.5952296  15.3605390
  11.5760660  23.4027386  16.1888790  78.2078266  76.7759848   0.5685417
  77.6281834  76.3081884   1.1697195  77.7538300  76.7463255  -0.2736215
  80.8134651  32.9385304  69.9539089  80.7442093  32.0083976  69.7387600
  80.4969120  33.0001140  70.8551455  11.8174720   4.2128283  26.1911297
  12.1002007   5.1270604  26.1693311  12.6268625   3.7096325  26.1021781
  45.5647564   2.8495821  45.1269722  45.0590849   3.4770277  44.6104097
  44.9055958   2.2828910  45.5277205  43.7072134  21.8018436  12.3112905
  44.5286894  21.5041232  11.9204307  43.2933903  22.3281646  11.6272068
  52.0991898  63.6742783  41.5856886  51.6328716  62.8452730  41.4783382
  52.6908779  63.7152863  40.8343840  21.9627643  49.9438190  55.9510899
  21.4675236  49.3243313  55.4151773  22.6111794  49.4042158  56.4034367
  54.2678499  10.4362702   9.3753129  54.9630594  11.0572231   9.5928741
  54.1425943   9.9267912  10.1759207  57.3061085  57.5380993   3.0575296
  58.0293703  57.4815893   3.6819744  57.5827360  56.9933319   2.3206848
  44.0653849  59.2356348  50.9291410  43.6150932  60.0760746  51.0135746
  43.4205675  58.6584616  50.5201006   3.7633246  29.0905929  68.0403042
   4.2740634  28.2876778  67.9368353   4.3372953  29.6778512  68.5321569
  13.4077871  30.4846120  67.5116730  12.6023912  30.1185918  67.8771830
  13.2558596  31.4295483  67.4959278  69.3270206  56.7685890  20.3072834
  69.3433952  56.1282492  21.0185695  70.1546288  56.6346884  19.8453641
  33.4539676  23.1385112  31.5377474  33.5458803  24.0158963  31.1662936
  34.3532205  22.8448582  31.6838408  41.9003391  68.0309963   1.3679463
  42.4059629  67.3622322   0.9060685  42.2322893  68.8610554   1.0258392
  35.2869081  50.4681587   7.1986812  34.6791029  50.1104355   6.5515029
  35.3553653  49.7853851   7.8660351  59.2862368  64.3914557   7.3342961
  58.6771202  63.7094212   7.6172048  59.1318846  65.1165962   7.9397529
  27.0718336  24.7196531  69.4618511  27.4084759  24.4647098  68.6028337
  26.3001204  25.2518630  69.2683554  54.1045570  80.1095581   1.8959804
  54.2567587  80.6451607   2.6745659  53.7382841  79.2927694   2.2350046
  43.6522484  47.3970032  70.3830242  44.4249058  46.9908762  69.9902248
  43.5747528  46.9828129  71.2424850  18.7879324  72.6882172  58.7563992
  19.0087080  72.2885370  59.5976734  18.3929801  73.5290861  58.9870214
  17.2000587  45.4181671   1.9941953  17.5010800  45.6831169   2.8633443
  16.9488704  44.5002747   2.0972236  12.7345943  37.8178596  66.8629742
  11.8682289  37.7156043  66.4690399  12.5996363  37.6272178  67.7912378
  48.1603956   3.0905586  51.7902231  48.9845991   3.3000043  51.3508463
  48.3672667   2.3345673  52.3396921  79.8749781  63.3593035  18.5235870
  78.9954233  63.3872795  18.1469762  79.8246813  63.9277983  19.2920351
   7.9708207  14.1014695  53.4026146   7.5284970  13.5156476  54.0169382
   8.6294019  13.5511208  52.9788017  15.9591472   6.3695502  56.2644482
  16.9011998   6.2010831  56.2841797  15.8843100   7.3208046  56.3402605
  74.1861343  74.6777582   3.9517364  73.4974909  74.0241861   4.0735918
  74.9672365  74.2765570   4.3327212  43.7079763  58.5007906  42.2297525
  44.0231562  58.8020897  41.3776302  43.9823008  57.5849295  42.2764206
  12.7507830  11.5092421   3.0501559  11.8705451  11.3338602   3.3828029
  12.6123762  12.0856535   2.2986078  86.0071278   6.5855330   5.0234777
  85.8511639   7.5033903   5.2458423  86.6024971   6.6183263   4.2746842
  75.2587032   8.9027101  18.8631749  74.6740150   8.9198828  18.1054962
  75.0823832   8.0606234  19.2827368  19.7776103  11.6993213   5.7341206
  19.3231833  12.3242772   6.2990606  19.7876465  10.8850312   6.2371749
  20.6046677  65.9640884  41.6927242  21.2914085  65.6329584  41.1139536
  20.0561428  65.2010107  41.8745613  40.6476212  33.9239287  55.4794788
  41.5849018  34.1161394  55.4514074  40.5997896  33.0006289  55.7274008
  60.1782656  43.7397146  60.5247164  59.6108532  42.9991102  60.7386637
  59.5816088  44.4842768  60.4481363  21.1356330  10.2470326   0.5729354
  20.5024505  10.8310735   0.9903190  21.0362554  10.4162812  -0.3639271
  25.2646255  39.5802259  67.2866917  25.1037097  38.6366487  67.2867537
  25.2502465  39.8257065  68.2117701   4.0028325  35.2678490  45.3357029
   4.6642852  35.0116158  45.9783983   3.9012197  34.4976568  44.7764969
   1.6356745  59.8087692  19.1513395   2.5360525  59.8553610  19.4728684
   1.4140250  58.8785505  19.1937804  51.3997364  32.1806860  65.2781963
  50.5442476  32.5733566  65.1044607  52.0193291  32.9038382  65.1813126
  15.2568865  13.7559271  47.0760870  15.8781040  13.2552326  47.6048851
  15.8046794  14.2452288  46.4622974  70.1471710   0.2770935  27.2761297
  69.9900007   0.7177114  28.1112266  69.2735815   0.1388774  26.9101119
  21.1108708  65.8829355  62.4240541  20.7787061  65.2881050  63.0964184
  20.4040146  66.5149212  62.2929859  73.3144760   9.2959148  23.4378386
  73.6012173   8.4352517  23.1324363  74.0578032   9.6323347  23.9383554
  28.1486154  18.0669343   6.1204487  27.8945947  17.2982025   5.6098038
  28.4446454  17.7108610   6.9581890  54.3634605  67.6091671   4.3122539
  53.8918781  67.8648281   5.1050234  55.1260710  68.1872463   4.2902797
   8.4667253  11.7580748  26.8719625   9.4205177  11.7624259  26.7913818
   8.1620049  11.3049686  26.0857868  36.7531967   8.4944665  60.5663490
  36.8865085   9.3231165  60.1061344  36.2788534   7.9467332  59.9408770
   5.7651657  15.5822933  42.8945208   6.2698066  16.2322783  42.4055529
   6.3628340  14.8414528  42.9954147   8.0179131  22.5539017  47.6433754
   7.6081622  22.8842425  48.4428787   7.8248674  21.6163731  47.6450539
  29.3925953  57.2725248  55.7555962  28.9487219  57.5655270  54.9597597
  28.9390230  57.7285051  56.4645290  31.9557214  57.4565220   4.0392166
  32.5542140  56.7333651   3.8519090  31.0841131  57.0920801   3.8852233
  66.4843702   4.4443548   6.7563617  66.3910770   4.8758084   7.6056999
  65.5948734   4.4141525   6.4040691  21.2274003   2.0813088   7.8108913
  22.0679212   2.5356832   7.8683543  20.6226420   2.6326603   8.3073902
  35.4763937  58.9069986  59.4030285  35.3257370  59.5720005  60.0748253
  35.9352112  59.3725824  58.7037802  45.2245903  21.2226272  63.4804153
  45.5367708  21.8961453  64.0846872  45.0205135  20.4739833  64.0408754
  75.8581829  50.7298040   5.2177107  75.5935478  51.2573719   5.9712839
  75.2412033  50.9721231   4.5271680  82.5496674  17.9321814  27.4215341
  81.8466949  18.0220783  26.7781210  83.1166363  17.2493684  27.0630026
  49.8611975  48.8776207   6.5960455  50.5614614  49.4997406   6.7930752
  49.2912817  48.9072275   7.3645192  85.1979446  70.9873152  12.9391384
  85.7692146  70.3244638  12.5511825  85.7350540  71.7790842  12.9682004
   3.4821960  14.2309296  61.8694687   3.3476800  15.1572466  61.6692829
   2.7496213  13.7851501  61.4442062  69.0644312  31.5759516  13.0338609
  68.2840395  31.7017221  12.4940431  69.0027332  32.2547603  13.7059069
  29.5880365  25.1028728  25.0861597  30.4508805  25.3802657  25.3940344
  29.7664285  24.6113586  24.2843962  62.2337818  37.4757934   0.7285433
  62.3437214  37.9696393  -0.0840221  63.0264711  36.9432950   0.7943022
  84.0789604  63.5978937  52.8215504  83.8995647  64.4186831  52.3629045
  83.2136536  63.2486105  53.0348015  20.4964781   3.5571399  23.1731725
  19.6143627   3.1988668  23.2718992  21.0746431   2.8006631  23.2716560
  29.6297169  20.6342602  58.2523966  29.4115186  19.7200739  58.0710602
  28.9616942  21.1369491  57.7862644  41.4696312  42.1250105  60.1346636
  41.7747641  42.3814106  59.2643833  41.8546677  41.2605333  60.2784014
  27.0582747  61.9962454  62.9901028  26.1680269  61.7999363  63.2819176
  26.9428778  62.4328804  62.1461439  34.8868346   9.6249557   0.5716658
  34.0716743   9.2331469   0.8850843  35.5753279   9.1499472   1.0370445
  39.4503784  19.3610883  68.4273100  39.7803926  19.3806243  69.3256092
  38.8618755  20.1139665  68.3719206   9.6173453  69.7282457  65.3734112
  10.0128281  68.8725567  65.2071953  10.1920605  70.3488398  64.9253082
  73.3803892  67.7844620  66.3349247  73.7762070  68.2691622  65.6106138
  72.4699020  68.0793953  66.3512516  11.5460992  75.1881027  16.9909632
  10.8828032  75.1872778  16.3008416  11.8283272  74.2755604  17.0529985
  19.1084552  55.4910707  70.4650927  19.1792715  55.1746035  69.5644999
  19.0150714  54.6969938  70.9913540  67.9060745  68.7176943  13.2076216
  67.5546837  68.3051109  12.4186170  68.7619686  69.0535450  12.9413867
  42.0037508  63.1320953   7.0707017  42.0524549  63.8090229   7.7457035
  42.5970507  63.4357929   6.3836825  62.9738263  81.4819408   1.3313921
  62.1054731  81.3029723   0.9706080  63.5636352  80.9245813   0.8237432
  26.8441224  58.9982080  42.5097227  27.2564721  58.3867025  41.8995905
  26.8783116  59.8433256  42.0615721  81.0527325  14.0518367  15.3459966
  80.3627586  14.3758452  15.9249425  80.6087399  13.4310937  14.7682583
  20.6981874  52.5851011  18.5418057  19.9046159  53.0093241  18.2154477
  21.0431218  53.1930304  19.1957736  74.8778439   4.9671364  25.1004052
  75.3771067   4.5200610  24.4169617  75.1587296   4.5491892  25.9144425
  35.2227783  51.8035698  66.0478115  35.2197576  51.9823980  66.9881535
  35.7801366  52.4870872  65.6758118  43.5819674  70.4652834  11.9297469
  42.9890251  69.7160482  11.9872451  43.8455534  70.4920864  11.0099447
  81.5678406   0.3042220  23.4432149  82.1768856   0.3395165  24.1808128
  82.1240234   0.1441205  22.6808095  11.3116062  28.4629750  63.3436394
  11.4686739  27.5444102  63.1250095  12.0775700  28.7215495  63.8561535
  20.9913540  23.3389401  65.1056051  20.7672167  22.6295495  64.5033121
  20.1570058  23.5884094  65.5029202  80.1162338  70.5215311  64.5931053
  80.4900265  71.2348604  64.0757370  80.7024670  70.4384184  65.3452015
   7.3950481  30.0636744  47.0155573   8.1767076  29.5115089  47.0343590
   7.2638518  30.2615762  46.0882711  27.6161671  39.0355229  63.4129572
  28.0121255  38.3888412  63.9971209  28.3201241  39.2774582  62.8111696
  27.3845696  23.4105968  67.1063375  27.4673605  24.0776730  66.4248753
  26.5445805  22.9880738  66.9271088  40.9476089  75.9481382  10.0034833
  40.0633621  76.0937071  10.3398657  41.4012384  75.4915476  10.7119834
  33.2958412  41.7319012  66.4182472  33.2597733  41.5718174  67.3612785
  33.1686640  42.6765585  66.3306332  18.2952023  12.5042939  15.4501820
  18.5823250  11.6738212  15.0705671  19.0244758  12.7782547  16.0063636
  84.3339443  27.6019669  57.7508259  84.2321873  26.8076706  58.2751989
  84.2846394  27.2984838  56.8443489  73.4931946  20.1081109  13.1678021
  72.6713800  19.6280277  13.2696605  74.1078568  19.4603348  12.8231084
  21.8606949  14.6091437  66.6396093  22.7335191  14.3431711  66.9288635
  21.2803221  14.3414843  67.3521805  17.3172295  32.4602270  56.6377687
  18.0517542  31.9089937  56.9076729  16.7911530  32.5634050  57.4307537
  38.5937285   7.4957144  36.0280013  38.4375763   8.2718104  36.5660739
  39.3739438   7.0930016  36.4092064  46.2035942  45.7768774  24.4768476
  45.2922535  45.4968548  24.5621586  46.2401819  46.6162443  24.9354935
  65.5783892  61.4091682  23.4846663  66.0842609  61.8434811  24.1714692
  64.7623825  61.1525154  23.9141941  59.2629004  29.3452907  15.9352422
  58.7256527  30.0939417  15.6761706  60.1539516  29.5931458  15.6886065
  63.4676695  79.3672276   9.3956822  62.6244450  79.2396832   8.9610100
  63.4829473  78.7059021  10.0875282  25.3304720   9.0805590   3.0061495
  24.4062662   9.2039979   3.2225731  25.3359246   8.9179051   2.0628864
  32.8496861   8.6430401  23.4244370  33.0695176   8.3221716  24.2990518
  33.6891818   8.6842352  22.9664183  84.8278809  13.6729360   2.7922964
  85.7350159  13.3809841   2.8822899  84.8808289  14.4521344   2.2388725
  33.7467241  25.4959822  66.3527298  34.0593600  26.1919546  65.7747078
  33.7241101  24.7161341  65.7981491  25.4517722  79.9230576  12.9059601
  24.6464467  80.2229023  13.3275974  25.3876686  78.9680958  12.9188931
   3.3772102  56.5475798  69.0069914   2.8337044  57.3083735  69.2119789
   2.7678737  55.8093977  69.0126801  49.2054462   2.1831155  16.1130393
  49.9236727   1.5540734  16.0445535  48.4451342   1.7173791  15.7648349
  38.6976933  55.4946232  30.8856440  38.2409048  54.7130346  30.5746818
  38.9106727  55.9804726  30.0888872  17.3560774  61.3646936  65.3727627
  17.0914912  62.2448874  65.6401205  17.2007537  60.8226013  66.1462259
  24.3044090  17.2858763  66.3837099  24.4682407  16.3467264  66.4696646
  23.3703399  17.3487878  66.1842394  86.4083385  10.6345391   2.7378550
  86.2565422   9.7438562   2.4218288  86.8230438  11.0827959   2.0007521
  58.1440544  66.0641718  60.5063915  58.1111383  65.9837151  59.5531464
  58.0795336  67.0051289  60.6697035  40.9250164  58.8618851  14.0141249
  41.6024923  59.0926647  13.3785117  40.4675102  59.6849155  14.1860044
  45.0348997  48.4004354  21.9106054  44.3325138  48.9018250  21.4964890
  45.1735926  47.6549721  21.3264108  37.1347857  37.0823669  57.3859739
  37.5767088  36.6963506  56.6297150  37.3843312  38.0061889  57.3634005
  22.0205140  74.3692636  60.0763273  21.7234755  74.3402672  59.1668415
  21.4458776  73.7568235  60.5356073   5.9819496   2.7595747   1.4311296
   5.7014656   1.8637174   1.2440462   6.6963792   2.6603937   2.0604031
  23.0884695  54.5641994  66.5404892  23.0750418  53.9960480  65.7702637
  22.6092529  54.0736961  67.2083139  34.9206233  54.9355173  38.6271787
  35.1528931  54.3653536  39.3601131  34.2650223  54.4398403  38.1365442
  20.3063488  39.1599441  21.5650821  19.6086097  39.7976041  21.7160153
  20.9647489  39.3636084  22.2293568   8.2248449  31.2775254  54.8474741
   8.2866836  31.0555196  53.9184332   7.3043674  31.5050220  54.9786139
  77.3315573  76.7689705   6.7343706  76.4332008  77.0994091   6.7333370
  77.8735590  77.5482893   6.6113895  24.0993810  60.0140858   7.3695284
  23.6274529  59.6684361   8.1271827  24.9465990  59.5691538   7.3916674
  61.8431282  19.1077435   6.8600374  61.6863918  19.7762489   6.1931288
  61.8255758  19.5870626   7.6883954  20.2121925  13.8431025  57.3069382
  20.0633645  14.7704637  57.1223211  20.4704762  13.4695864  56.4643192
  22.4232125  68.1703806   9.7819966  22.6387715  67.6519203   9.0067768
  21.5812087  67.8228235  10.0760460  55.4292440  43.7384319  55.8744526
  55.1015329  44.3744802  56.5102816  55.9868479  43.1530142  56.3868999
  11.7383146   7.7766490   7.3846030  12.2159183   8.6021107   7.4666965
  10.9861946   7.9890448   6.8319416  45.4716635  65.1735926  14.4827580
  45.5905676  65.1257229  13.5341787  45.2047968  66.0783482  14.6453357
  43.7162113  23.5910106  56.4489031  44.0784359  22.9631305  57.0740366
  43.4069490  23.0524993  55.7204819  19.1211617  38.3886600  34.6154761
  19.7818518  38.3100200  33.9273357  19.2268443  37.5954700  35.1407480
  20.1575851   2.5244769  52.3825455  20.4942966   3.1033468  53.0664778
  19.2286611   2.7459764  52.3171854  32.3252892   2.5412220  22.5350046
  32.4263692   2.2077405  23.4265232  33.0267334   3.1854665  22.4393034
  30.4360867  76.9753313  21.6815090  31.3815355  77.1248245  21.6777372
  30.1303434  77.3956680  22.4852943  71.3424444  25.6740093  61.2080383
  70.6168890  26.2567234  60.9838915  72.0700884  25.9778595  60.6654167
  32.4152732  65.5491638   6.9713891  33.1500196  65.6292534   7.5796366
  31.6586590  65.3752947   7.5313318  51.4226103  48.1532621  56.4853048
  51.2157679  48.4570742  57.3691273  51.2060499  47.2209406  56.4957094
  80.9973335  42.2485256  56.5146589  80.2083778  42.1455050  57.0467997
  81.1495876  43.1932783  56.4924669  19.5975244  44.1052628  52.3042345
  18.7276721  44.0307951  52.6967192  20.1842976  44.2460728  53.0472708
  84.6050167  34.9530697  62.4120808  85.0342846  34.1049433  62.2996569
  84.3447304  35.2089357  61.5271997  48.8555384  73.8777447   2.8979865
  48.7398958  73.8022709   1.9507998  49.2918348  73.0643749   3.1515741
  73.0554104  40.5000496  57.4652386  72.3532438  39.8767614  57.6515484
  72.6047182  41.2760305  57.1321392  29.5865107  12.0007873  52.9517984
  28.9370108  11.6236305  52.3583889  30.1877499  11.2797225  53.1383657
  71.4187336  25.6493187  43.8924980  70.8321571  26.2661004  43.4546137
  72.1025085  25.4697537  43.2471752  72.9068279  46.7833328  27.7612925
  72.0343494  47.1480417  27.9096103  73.0644655  46.2228489  28.5210538
  16.3033748  39.2418337  56.2552357  17.0387793  39.4411159  55.6758404
  16.0699654  40.0845718  56.6445255  47.1566963  35.2144885  57.9048347
  46.4498854  35.3010154  58.5444927  47.9153252  35.6136847  58.3306885
  26.3568735  46.5236616  68.6442566  26.9841814  45.8088589  68.7527657
  25.6860876  46.1672926  68.0617809  28.5797238  28.0756950  46.1958599
  29.2797470  27.9250932  45.5606270  28.9715075  27.8549552  47.0408487
  23.3703923  14.2666817  10.5271935  22.4909139  14.5745850  10.3082311
  23.8577890  14.3301606   9.7058249  50.0488281  26.3610363  22.0318913
  50.8801794  25.8885336  21.9892001  49.4059753  25.7472658  21.6765666
  74.5285225  72.3598146  18.7434554  74.3397045  71.5739727  19.2563224
  74.4019985  73.0828810  19.3577814   5.4519236  10.8269453  10.5576968
   4.5689642  11.1931121  10.5073357   5.8504575  11.0460019   9.7154278
  10.2867448   5.6968993  22.6572132   9.8075199   5.5025500  21.8517303
  10.8301711   4.9229482  22.8052664  73.5590839  23.0619287   7.3858625
  74.5021057  23.1274843   7.2353858  73.4050417  22.1295142   7.5378633
  73.1140471  41.5264750   5.2101374  73.6402178  42.2465754   5.5577481
  73.0150700  40.9243965   5.9476608  31.7296672  41.9645119  64.1124249
  32.1809840  41.5669346  64.8570538  31.1375999  42.6056290  64.5056915
   8.2208115   2.3738980   3.3219284   8.8237524   3.0932769   3.1343454
   8.2726073   2.2592239   4.2708218  18.0107427  21.9588137   7.2510034
  18.7376845  21.6588283   6.7052948  17.2267950  21.6518307   6.7955697
   1.9795556  47.7233458   6.9216305   2.3570693  48.5558510   6.6376364
   2.6597887  47.0760775   6.7357290  31.4102507  33.1497622  68.6004353
  31.7521667  33.3155370  67.7218866  30.4611492  33.2323456  68.5075998
  25.9145856  50.7666445  62.1162748  25.9323192  51.3583374  62.8684807
  26.6241121  51.0746956  61.5524435  54.9928284  80.8061123  33.0732417
  55.5592966  81.4511871  33.4965897  55.3344822  79.9603224  33.3633184
  32.9876065  16.7664528  54.2813301  33.7947249  17.2736013  54.3684578
  32.3133445  17.4196076  54.0942621  35.4750943  52.3672485  68.6656523
  35.2644944  53.2766199  68.8776064  35.6060696  51.9473219  69.5157957
  35.0123906  65.5253029  59.3214178  35.0460529  66.0317564  60.1329613
  34.0784073  65.4444647  59.1281080  21.0112214  61.9842100  54.3183422
  20.8241892  62.0463943  55.2550316  20.2332258  62.3462343  53.8942051
  27.2995496  76.1136818  67.2345686  27.3113441  77.0452738  67.0149612
  27.3249030  75.6676960  66.3879919  56.6841984   5.4764253  22.8047919
  57.1102381   5.6814575  23.6370683  56.2633181   4.6296585  22.9533768
  55.4852390  61.9558477   4.5960122  55.7904816  62.8594160   4.6773615
  55.9203768  61.4907885   5.3105778  85.3465080  18.8678825  50.4605770
  84.8022270  18.9857399  49.6820498  84.7373295  18.9536083  51.1939144
  51.8835068  64.5841980  56.6381979  50.9295797  64.5312023  56.5795040
  52.0495224  64.9688387  57.4988508  68.4479141  15.1634216   9.1210079
  68.7934351  15.7455659   8.4442848  69.1907358  14.6105552   9.3634611
  53.9873743  18.0061090  17.6170540  54.5735550  18.7517810  17.4882448
  53.8721800  17.9531026  18.5658181  61.7421722  77.7921104   7.5086933
  61.2475061  77.3655510   6.8089879  62.6209545  77.9047918   7.1463817
  85.4595757  40.3029728  19.1200221  85.3021908  41.0622501  19.6812332
  84.8073673  40.3804970  18.4237170  25.0563145  29.2950463  38.4626627
  25.2340961  29.3535614  37.5239396  25.5910945  29.9872804  38.8513207
  25.6328905  62.0606472  70.7179626  25.3050745  61.8738915  69.8382513
  25.3908289  61.2905003  71.2322701   5.7076305  17.5895572  17.5422060
   6.4169776  17.1276677  17.9891014   5.0239640  16.9288242  17.4314642
  25.1984477  68.1537390  22.1094275  24.3943214  68.2622385  22.6172066
  25.9023714  68.2831573  22.7450156  76.6096830  69.9420738  10.7245827
  76.5555954  70.5500412  11.4619303  77.2258329  70.3542328  10.1190150
   1.3323843  27.5851321   0.0102219   0.9625606  27.0731640   0.7294941
   2.0894295  28.0267382   0.3950563   7.5956311  69.6860860  -0.0548036
   7.1964278  70.3913329  -0.5642088   8.0936541  70.1359127   0.6277363
  69.1725254  43.8990116   8.4003222  69.4341946  43.2530117   7.7442372
  68.4191465  43.5034800   8.8387394  76.2468100  68.1918573  37.7761054
  75.7833052  67.3672628  37.6296902  75.8054543  68.8195705  37.2039104
  42.5951099  42.1010399  20.4088402  42.3480749  41.2276363  20.7127595
  41.7839622  42.4721384  20.0616241  32.2245479  30.4713154  50.9151125
  31.7323422  29.7299337  51.2677002  33.1398988  30.2603531  51.0991192
  62.5311613   7.8744626  20.1400757  61.7161798   8.3548146  20.2860045
  62.9546022   7.8548849  20.9982991  33.2186770  20.0486827  17.0910776
  32.4194646  20.5508232  16.9318688  32.9768658  19.1441584  16.8920946
  49.3394279  77.0391512  70.2457333  49.9781418  77.6922321  70.5316877
  49.8184204  76.2106752  70.2662325  61.2894773  18.9205527  38.5116887
  62.0814323  19.4536459  38.5813689  60.6107044  19.4430220  38.9389157
  58.2529736  75.9289694   7.5450259  58.8236523  75.4143858   8.1157780
  57.9439640  76.6459846   8.0987728  29.0586686  28.9151669  30.3082466
  28.4660792  29.5539379  29.9119616  28.5438538  28.5125256  31.0075855
  74.4498396  12.6722562   1.3078232  73.9046192  12.0338178   1.7675667
  73.8384962  13.3557022   1.0332398  57.4356079  23.5327172   5.9959495
  57.7534056  24.3627882   5.6406778  56.6842890  23.3090687   5.4466450
  51.0390949   8.7124628  15.3580308  51.0945845   8.7046605  14.4024730
  50.2780199   8.1675524  15.5582058  51.3643456  76.7148733   2.1373318
  51.5256691  77.5886536   2.4933012  50.7012367  76.3390350   2.7163509
  15.5958486  13.6625218  62.0893621  16.5303421  13.8686728  62.1107197
  15.5598330  12.7397907  61.8373680  83.4658337  24.6333504   7.5831378
  83.3139324  24.6049213   6.6384947  83.5090733  23.7141228   7.8465450
  79.4607973   7.9269427  29.9351692  80.2618694   8.2599050  30.3397131
  78.9213133   7.6407784  30.6722593  77.9293108  33.3774757  47.5260592
  77.8756809  32.4529982  47.2837830  77.3006248  33.8128138  46.9503260
  36.3998342  60.7914925  26.7940927  36.4810300  60.5871630  27.7256989
  36.8327284  61.6395903  26.6962862  19.8714805   0.4430100  56.5853834
  19.9843407  -0.5061009  56.6371775  19.8819590   0.6346322  55.6476164
   9.3234831   1.0858928  21.5984249   8.8720369   1.7030235  21.0225964
   8.7500328   1.0061403  22.3606753  15.5927324   3.9746651  67.1460056
  15.3566778   4.6339270  67.7986050  15.1415813   3.1808791  67.4334049
  82.3994446   0.9228694   3.4299672  81.6986561   1.5164301   3.6998019
  82.6558781   1.2340332   2.5618356  73.6898518   9.9135375  66.4180899
  73.9809656  10.5801082  67.0403194  73.2992697  10.4109132  65.6995583
  15.0865877  32.1644258  12.9344678  15.6667185  32.2740674  13.6878991
  14.8908019  31.2276220  12.9172564  18.5917056  33.0537128  54.3493319
  18.0237544  32.8715539  55.0979853  19.4718385  32.8394413  54.6586609
  42.6954031  76.9936514  46.7897940  42.0372534  77.0291758  46.0956717
  42.1907806  76.8565607  47.5915384  37.1794128  71.3592243  57.1058178
  36.4887333  70.6965828  57.0956707  37.5110626  71.3732672  56.2080193
  55.2551460  62.4736023  56.5303802  54.9084997  62.2847033  57.4023819
  55.4356337  61.6127682  56.1527348  81.6256237   6.6315430  18.5922754
  81.8320465   5.9223956  19.2011511  80.8148479   6.3531560  18.1663918
   2.9413420  61.4976883   8.3952010   3.5478765  61.0837889   7.7811670
   3.3840641  62.3029613   8.6630797  59.4746733  57.9721689  60.0067139
  59.8430586  57.8596067  59.1304445  58.9567089  58.7749338  59.9474716
  33.2025528  36.0864162  52.2722721  32.5824761  36.4118099  52.9248524
  34.0613842  36.3393617  52.6108885  37.1554112  30.2638960  53.2329941
  37.0575213  29.3190384  53.3508635  37.7966237  30.3521371  52.5278044
   7.0921767  34.4380236  40.8007479   6.8709540  33.5082960  40.8545923
   7.8551811  34.4696355  40.2236366  16.7199290  55.6258821  20.2486181
  16.0740972  56.1850834  19.8168480  16.9488347  56.0982847  21.0490370
  31.5700221  50.2734470  21.0935020  32.0190191  50.3483963  20.2514696
  31.9064665  49.4616079  21.4729166  51.5220833  68.6338758  17.3519528
  51.4145374  69.2627573  16.6383862  51.0197020  69.0059042  18.0768275
  30.9539723  44.6982622  69.9285412  31.0332775  45.0290251  70.8232689
  31.2535620  45.4218960  69.3782377  40.3580904  34.6869540  62.6754427
  40.1821136  34.5335531  63.6037350  39.5144439  34.5470405  62.2454214
  84.7042847  17.6597941   8.0349153  84.9094963  18.5922992   7.9674166
  85.0156879  17.2857499   7.2106892  42.5189590  12.2053897  13.9090228
  42.7302313  11.9441319  14.8053145  43.2514620  12.7609491  13.6425102
  82.9268932  22.1220994   8.1217062  82.7713871  21.2661481   7.7224648
  82.5112152  22.0642042   8.9819902  12.1140313  18.5691988  31.2472844
  12.4519479  18.6570358  30.3560328  12.8965020  18.5254562  31.7968822
   6.6773516   0.6213378  17.8250146   5.8106202   0.3603447  17.5137413
   7.2357309  -0.1337558  17.6398718  80.3925800  18.7682521  31.2089086
  81.2317848  19.0707481  30.8618379  80.1383400  18.0503654  30.6290507
  21.9434834  11.6277862  22.8822732  22.9005194  11.6294897  22.8999639
  21.7166519  10.9360588  22.2607493  44.3175554  33.4519172  62.9211187
  43.6302233  33.7194729  62.3110247  44.4674110  32.5275755  62.7227020
  36.8772006  31.7710710   8.9535594  36.1398077  31.3769555   8.4875613
  36.6411781  32.6948929   9.0377009  48.7407637  66.5167236   5.5140275
  49.4114923  67.1912718   5.4075462  49.2231464  65.7433319   5.8062750
  83.9262486   4.3677151  43.4644079  83.1855488   4.2692709  42.8661537
  83.6328983   5.0165749  44.1040611   7.9409301  24.0206623   2.9315624
   8.7930644  24.3847966   2.6917624   8.0404329  23.7614679   3.8476136
  50.3994083  53.5463953   5.6239814  49.9233055  54.3177795   5.3165394
  51.0669231  53.3945322   4.9549550   5.8635002  27.3301935   1.3870563
   6.2683284  27.0091367   2.1928282   5.6545734  26.5381074   0.8918968
  27.4012041   9.5242482   7.3403156  26.5539670   9.4638783   6.8989801
  27.8347588   8.6944681   7.1409953  12.2723925  70.0958633  44.8567200
  12.6903498  70.3267908  45.6863070  12.5998175  69.2182493  44.6597004
  32.4729490  67.1540260  42.3877001  31.6013312  67.1007204  41.9956875
  32.4090028  67.8724241  43.0170202  20.0755095  35.9663987  37.9420471
  20.0408244  36.8427896  38.3254075  20.3353691  35.3979611  38.6670184
  40.3298044  77.4840546  65.7742548  40.2602005  76.7171240  66.3427687
  39.8040962  77.2612095  65.0060081  67.6242304   6.6318303  51.8636370
  67.4599123   6.9095147  52.7648163  68.4612608   7.0370924  51.6369772
  82.6216125  12.1630836   1.1474128  81.8401146  11.9962859   1.6743574
  83.1838036  12.6919484   1.7135170  18.9713955  60.3501749  52.2346640
  19.7134387  60.7324266  52.7031565  19.2451727  59.4530725  52.0436335
  59.8205519   6.9017607  51.0012150  60.0465775   7.0695180  50.0863409
  59.9533653   7.7426547  51.4388132  67.2973680  64.4132614  45.1348162
  68.1497288  64.3605042  45.5671644  67.2746372  65.2922821  44.7566128
  45.5374432  79.2740536  55.2170467  44.9521303  79.9620581  54.9003649
  46.3972855  79.6923828  55.2606106   2.5282562  15.2412713  21.8900108
   2.5141066  14.2893887  21.7902637   3.4559840  15.4588294  21.9806862
  28.8195777  49.1669416  69.8269987  28.7322664  49.8898983  70.4482412
  28.6245823  48.3838892  70.3418159  14.5684183   1.3387933  27.9132032
  14.2435813   0.5352043  27.5070548  14.5104241   1.1720452  28.8539815
  49.0329456  76.3299084  50.8016300  48.6436129  76.0385656  49.9771452
  49.9726391  76.1893892  50.6856108  19.3558824  17.5827146  43.8230801
  18.9232635  17.7142584  42.9794168  19.2308688  18.4100688  44.2879343
  15.6792927  57.1200037  35.5288315  16.4926064  57.3192739  35.9925580
  15.3131819  56.3706398  35.9985614  81.2271690  34.7519255   8.8023365
  81.5975380  35.2906489   9.5015001  80.3374004  34.5566058   9.0962720
  29.9616718  22.9001570  11.7001629  29.0545154  22.8616190  12.0031714
  30.3238058  23.6768961  12.1265054  34.2051601  69.0020227  50.8287907
  34.3966055  68.5189772  50.0248909  33.2636452  69.1699266  50.7888699
  78.6852074   8.2017714   1.5220672  77.8671074   8.5870296   1.2081902
  79.0267658   7.7188557   0.7694960  81.9359875  65.4904842  55.0382376
  82.5485611  64.7717047  54.8822212  81.2147903  65.0895119  55.5233479
  41.7373323  28.4999561  67.6884508  42.3269939  28.6404276  66.9476461
  41.1811638  29.2788649  67.7029324  33.1800032   7.6542449   4.3987039
  33.0374026   7.3502517   3.5023308  32.9453468   8.5819864   4.3771678
  76.5951204  11.9948614  70.0954533  76.0925293  11.7234111  70.8635330
  76.2054110  11.5073991  69.3696880  22.0096040  52.7954769  15.1387274
  21.6143155  52.0150709  14.7502172  22.3399568  53.2939911  14.3913412
  12.4840188  79.7457981  68.7176657  12.6741183  80.3409195  69.4428730
  12.1878266  80.3178978  68.0097008  79.1245699  67.4732399  53.2262897
  79.2552710  67.0998859  52.3546505  78.8453865  66.7326689  53.7646627
  46.9093275  16.9368696  37.3819709  47.7408314  16.8720329  36.9122529
  46.3318968  16.3193488  36.9331145  84.6657085   0.3084936   4.8946485
  84.6374130   0.0775049   5.8231288  84.0289688   1.0175137   4.8047185
  63.7124777  45.9527874  66.7964315  62.9426575  46.1329412  66.2568521
  63.5961485  45.0475836  67.0850563   0.7850417  69.1675377  34.4664907
   0.6418155  68.8926601  33.5608625   0.2996231  69.9885654  34.5472097
  31.7588663   8.8905454   9.2098331  32.4799681   9.3204713   9.6696234
  32.0158029   8.9121866   8.2880157   4.0601316   3.4449553  66.6251326
   4.8853576   2.9599503  66.6270256   4.1715893   4.1099429  67.3045444
  10.4233396  20.9696102  23.6207271  10.7604253  20.1346707  23.2959485
  10.8465481  21.0840678  24.4716239  15.3775156  33.1326151  21.3525677
  16.2364602  32.8401160  21.6573501  14.8109400  33.0521393  22.1198654
  17.4557364  54.3719959  15.0905728  18.0295730  54.5688725  15.8309674
  17.9449952  53.7337494  14.5714438  76.6367149  43.3490372  19.3966901
  77.1780586  42.8444147  20.0037670  75.8893394  43.6340857  19.9224353
  55.6399679  18.7017429  69.3686533  55.1805449  18.3426476  68.6095715
  56.2583637  18.0159998  69.6208048  27.4610829  26.1797500  16.4279985
  27.7733779  25.7375097  15.6386161  27.8785348  25.7073140  17.1482563
  78.2253313  20.3069305  60.3209734  77.3439646  20.6548381  60.4565763
  78.4573603  19.9087656  61.1599398  19.6765292  44.5988512  11.7874098
  19.7286332  45.2329111  12.5025916  20.2729988  43.8963652  12.0461965
   2.9261425  22.9367876  30.8222556   3.2277277  23.7713861  30.4634762
   1.9753239  22.9592299  30.7142186  33.3683801  18.3772910  57.2930193
  32.7110410  17.7013874  57.1278238  33.3855581  18.4668982  58.2458591
  63.2357502   4.2390320  48.1235456  63.1261778   4.1409412  49.0693808
  63.9780521   3.6742264  47.9085732  34.4589233  58.7824392  29.3108392
  34.4314051  58.0160332  28.7380362  35.3568029  59.1055346  29.2356515
  21.7846966  62.5463057  58.5792685  20.9593487  62.6005507  58.0975151
  22.4486232  62.8265142  57.9492569  39.4418311  49.5901918  14.1005802
  39.0347934  49.7587013  13.2507813  39.6877909  50.4567337  14.4243777
  47.4124527  74.0238142  51.9879627  47.9956627  73.6025429  51.3565874
  47.7117777  74.9323940  52.0213366  56.6224003  69.5928860  66.3110542
  57.1668339  69.6650362  65.5270815  56.7705870  70.4130125  66.7818737
  77.3070002  15.6278694  52.8518057  77.2104120  15.9950411  53.7304878
  77.8879929  14.8762167  52.9688454  44.1412306  53.7419033  62.3771524
  43.7452030  52.8956413  62.5850773  44.0824938  54.2405367  63.1921053
  52.8068638  16.6225910  27.6179504  52.3736572  16.1411393  28.3227658
  52.3767328  17.4776840  27.6123977   4.2059012  36.9182871   0.1272337
   4.5169826  37.7869700   0.3818981   3.4882160  36.7337511   0.7331269
  44.6877575  70.6744862  45.1996088  44.9920940  69.7671270  45.2171707
  43.8898230  70.6492996  44.6715021  45.0769091  54.2393970  53.5483599
  44.1281939  54.1773033  53.4373856  45.3159428  55.0576162  53.1129169
  26.7784667  46.4374399   3.6576989  26.8995738  47.2115564   4.2075223
  27.5628018  45.9103441   3.8100821   9.1905010  14.4709134  25.8761930
   8.8181764  14.0556955  26.6541409   8.6014563  14.2188621  25.1650476
  47.3994589  79.9124718  35.5057669  47.8675842  80.2637291  36.2632036
  46.5666819  79.6024275  35.8615541  58.9139748  13.2253528  69.7793674
  59.6069479  12.5700223  69.6983767  58.1946039  12.7615428  70.2078772
   4.2364809  31.5589404   1.2352660   4.2081073  32.5157142   1.2325707
   4.4004783  31.3216138   0.3225706  37.9423285  18.2511055  42.6208687
  38.1470513  18.6909556  43.4460068  38.7503409  17.7949977  42.3856878
  22.9420757  25.4648709   4.0236002  22.2142124  24.8629665   4.1790271
  23.3839202  25.1120162   3.2512665  62.2301388  67.0135069  48.0377531
  61.4068651  67.2232914  47.5967932  62.1237612  66.1065817  48.3248091
  10.3626800  52.1744394   2.5466245   9.4603586  51.8881607   2.6883808
  10.7412779  51.5017080   1.9806494  69.9506330  31.5474463   7.7985620
  69.8391438  32.4797845   7.9844326  69.2175150  31.3285518   7.2233599
  58.1561422  36.3604903  59.6656179  57.5677061  36.7494607  59.0185642
  58.7811756  37.0561290  59.8697042  60.6952763  80.5626678  33.2620192
  60.4796696  80.6223869  34.1927052  60.5732012  81.4522266  32.9303241
  22.0084524  34.0676188   3.3723632  21.5371847  34.7282100   2.8646615
  21.8666744  34.3205261   4.2845964  83.1692600  46.0648918  21.4346313
  82.8605080  46.9581032  21.5865445  83.5260010  45.7879925  22.2786069
  39.1536808  19.5045948   5.9728038  39.1521049  20.4617929   5.9723681
  38.7023759  19.2639709   5.1636958  43.8488770  80.7235146  42.6680136
  43.4181976  81.3261795  43.2742691  43.1515121  80.4389954  42.0772791
  83.1557274  59.3798351  31.6311479  83.1535721  58.8446569  32.4247527
  83.1680012  58.7454367  30.9144759  54.4065714  56.1125040  58.7021017
  54.1602039  56.2442255  59.6176243  53.9865637  56.8346024  58.2347679
  34.1650867  59.5050859  45.6636524  34.5016670  59.2938614  44.7928333
  33.4351182  60.1022243  45.4999447  43.1396484   2.7155796  20.6768703
  42.7113533   2.5407746  21.5148664  42.4246931   2.7283689  20.0405455
  74.1962957  46.6585350  37.2126651  74.9561310  47.2392368  37.1718407
  74.0867519  46.4726305  38.1452250  38.7299562  77.5860977  36.8561816
  38.9101768  76.8014193  36.3384676  39.5881295  77.9897356  36.9859767
  33.6360025   6.2933403   6.7029023  33.5239577   6.8100107   5.9049487
  33.8194799   5.4072738   6.3907266  60.0507879  73.7528419  64.5759106
  60.3949833  73.0625677  64.0090895  60.7132339  74.4429588  64.5422077
   8.7008387  61.5567827  21.5025043   8.5736334  62.5020409  21.5833831
   8.7452209  61.4009380  20.5591202  10.2120376  34.0493202  47.5921869
   9.7258276  33.2787967  47.8856564  11.0722232  33.7099147  47.3449707
  36.3627315  79.6642828  22.7620459  36.5344334  79.6396637  23.7033963
  36.9369817  80.3552437  22.4318290  55.8745575  15.8564925  11.1151803
  55.9946728  16.1875308  12.0052457  54.9253416  15.8348477  10.9937501
  66.7620564  73.3304071  67.4136877  65.9275341  72.9665995  67.7094078
  67.1751404  73.6613131  68.2112455  80.1493263  16.7299008  59.1981411
  80.2597046  16.6038573  58.2557201  79.2209053  16.9369042  59.3049860
   2.6340136  58.0821896  27.7912831   2.7968335  57.9100132  28.7186861
   2.5473756  57.2137976  27.3980618   1.7939083  79.9374628  60.2841568
   2.7369499  79.7812891  60.3342962   1.3997489  79.1355467  60.6273699
   5.2670109  73.4040976   9.1076988   5.6139946  74.0603733   9.7119653
   5.9940785  72.7968740   8.9702833  55.6467962  74.1374874  60.7875967
  55.2073717  74.9012613  60.4137230  54.9345255  73.5858202  61.1109638
  43.0146933  55.8627748  52.5156784  43.1240559  56.3241625  51.6841793
  42.1738958  56.1723042  52.8525639  67.6959562   1.3030164  54.4582415
  68.4117413   1.9257990  54.5848274  68.1113768   0.5385539  54.0591717
  56.4251328  67.1926737  47.3165464  57.0987225  66.7325640  46.8157339
  56.7250681  68.1012821  47.3429728  74.5549870   7.7298641  64.8899031
  74.3866014   8.5758901  65.3047752  75.4955912   7.7331001  64.7124624
  70.0163746  15.4735839  48.5044718  70.5814457  16.2451303  48.5450220
  70.3583956  14.9645746  47.7695131  70.6651592  75.3323126  59.1163158
  71.3908100  75.7080841  58.6178637  70.3921700  76.0337591  59.7076511
  70.2300787  51.0396290  25.0340033  69.9295425  51.4344072  24.2154312
  70.9698296  50.4892111  24.7770262  38.4785295   5.4860204  64.3211603
  39.0523624   4.7238427  64.2434883  39.0556884   6.2359977  64.1774464
  65.3547668  69.7020864  63.1587839  66.2015104  69.4351959  62.8009796
  65.5745506  70.2218866  63.9319181  78.1317997  23.9553118  41.4875031
  78.2323790  23.8521123  42.4337912  78.3521366  23.0959511  41.1280870
  33.4052396  26.7901945  17.5354588  33.5400891  26.2770605  16.7387509
  33.1062055  26.1522961  18.1834531  22.6470351  19.0203655  35.5093980
  23.1187963  19.3076277  34.7276354  23.3057666  18.5632062  36.0321903
  27.3862147  33.9929509   7.2992420  26.7607331  33.2695985   7.3412579
  27.4096632  34.2358565   6.3736725  14.3202746  50.8810759   8.4561354
  14.5927930  50.1600504   9.0236640  13.9549327  51.5323257   9.0549934
  64.9522972  67.2985983  44.2192030  65.0285196  67.5260210  43.2925415
  65.8452892  67.3673725  44.5569420  49.7248030  12.4190307  55.2865744
  49.6378708  12.6771963  54.3689537  48.8674545  12.0610857  55.5169296
   2.1975607  27.8570724  12.6289976   1.3912845  28.1900167  12.2349191
   2.4491005  28.5283732  13.2632804  24.8307514  29.2610693   0.7310636
  24.2161894  29.5827079   0.0714450  25.6085229  29.0112495   0.2321714
  25.7983470  69.2478800  57.4650812  26.1153984  68.3482838  57.3848534
  24.8488307  69.1768265  57.3670959  45.4627609   4.2031425  32.6998186
  46.1834192   3.9825639  33.2899284  45.6026173   5.1254439  32.4852657
  61.9895029  55.2954721  53.7681293  62.3583841  56.1488104  53.9961004
  62.6089811  54.9273348  53.1380844  50.1119709  71.1699009  64.7664356
  49.3680239  70.9378099  64.2106438  49.8684072  72.0106220  65.1538706
  73.3764935  69.5898056  61.7082310  73.1453371  68.6867142  61.9255495
  72.5594091  69.9773169  61.3944912  40.1309538   2.9887110  16.4436090
  40.3011894   2.9122192  15.5047798  40.4164505   2.1508214  16.8078434
  49.2521572  64.2165375  56.8950796  48.7028980  63.7081051  57.4917746
  48.6757231  64.4285488  56.1609077  80.1147079  61.3553762  42.3269129
  80.1653290  61.2834549  43.2800627  79.8244715  60.4906893  42.0365524
  29.1772556  54.0235138  33.4511352  28.9291859  53.6846590  34.3112946
  29.9581265  54.5514345  33.6177778  85.7851601  30.4950547  69.0616751
  86.5339565  30.0219488  69.4245911  85.3142452  29.8395705  68.5470724
  79.7721815  49.3636084  12.7245831  80.4754543  48.7175846  12.6590979
  80.1568985  50.1716995  12.3851442  70.9334326  44.6768808  45.2242041
  71.2191820  45.4300547  44.7071886  71.5027761  44.6846533  45.9936333
  29.0619612  69.9730730  66.2325430  28.4891224  69.5021152  66.8377590
  29.6544695  70.4672337  66.7990875  79.8920488  26.2501693  13.7818122
  80.2893257  26.0245943  12.9406703  80.2061558  25.5753922  14.3836820
  33.3353949  11.9329655   1.6769388  33.7607241  11.5781331   0.8962847
  32.7523112  12.6147068   1.3430583  19.6260726  21.1279058  60.7095337
  20.1133418  20.3461313  60.9695911  19.4654357  21.0096192  59.7733545
  47.5544596  70.3605747  39.9267888  48.0309963  70.3714514  39.0967107
  47.8512573  69.5618582  40.3629017  54.3599987  33.3889055  -0.0995950
  54.0502930  32.4848366  -0.0450496  54.8366690  33.5285687   0.7186402
  15.3638434  16.2614191  60.9704590  14.7421265  16.3492906  60.2479792
  14.8537016  15.8691645  61.6790676  32.1746778  63.0854940  58.0474806
  32.4318862  62.2144938  58.3498621  32.1406102  63.6151838  58.8440371
  24.4431710  40.6956387  21.4757895  23.6887050  40.9417820  20.9405994
  24.0695882  40.1927996  22.1995449  64.7050333  77.6161718  40.6018448
  64.4417858  76.7450142  40.8985186  64.2433786  77.7362251  39.7719693
  69.6482849  20.6696105  39.1405487  70.4139662  20.7338119  39.7113752
  69.2699528  19.8138928  39.3426418   4.9049070  27.2959661  11.1587083
   5.5561161  27.8599024  11.5759993   4.0894604  27.4886394  11.6214788
  24.4542980  63.5273170  66.0120440  24.6115518  62.8948545  65.3109741
  24.2628813  64.3471336  65.5565310   1.3779420  32.4517298   3.5900819
   2.1225134  32.9805565   3.8767669   1.6144861  31.5555573   3.8291442
  31.0739136  51.1804342   5.0263095  31.1614299  50.8710861   5.9279054
  30.7759881  50.4131556   4.5376819  11.9621027  77.5189924  65.5747461
  11.8694508  77.4963999  66.5271807  11.6008878  76.6833305  65.2790737
  56.3759613  78.6804438  34.1460943  57.1832800  78.5024452  34.6285725
  55.7020760  78.1911469  34.6180058  80.4527760  47.4005318  24.4694996
  81.3697624  47.2181702  24.2643118  80.2685261  48.2290936  24.0270424
  28.0910110  27.2954130   4.1982898  27.9922557  28.2220221   4.4170904
  28.0279899  26.8426895   5.0393015  74.1430521  53.4171343  63.8490248
  74.3356991  53.8203239  64.6955204  74.5067644  52.5342607  63.9159346
  76.5513229  42.9245996  54.2692232  75.6220818  42.8263807  54.0616274
  76.9421959  42.0870829  54.0202045  29.3565702  37.1075845  13.7698507
  29.5495343  36.4150214  13.1379056  29.8517013  36.8631339  14.5517218
  22.7114129  47.1230555   1.9080625  22.5015402  46.5534878   2.6481825
  23.6254358  46.9244909   1.7046753  25.4646397  33.7973380  48.7169981
  24.5448613  33.6088896  48.5306549  25.6019163  34.6811271  48.3759594
  45.7712221  64.8554516  49.2013836  45.9636545  65.4498577  49.9265623
  45.7974339  65.4113770  48.4226084  45.7684803  75.7034969  63.6085892
  45.4339170  76.5718079  63.3842421  45.0885201  75.1000690  63.3089972
  48.9093161   4.6681994  57.1980715  48.9914656   5.3054357  56.4885521
  49.6647501   4.8377362  57.7609253  37.2983813  40.0433207  23.0474591
  37.0653129  39.4767952  22.3119593  37.8813934  40.7008266  22.6679683
  48.0428219   5.7542670  39.2193270  48.5981560   6.5188444  39.0668273
  47.1586657   6.0546321  39.0088964  22.5181770  41.3867712   1.0791623
  23.1499791  42.0771408   1.2802783  22.4816704  41.3666773   0.1228697
  18.1980979  29.4848180  13.2370937  17.3605061  29.5754099  13.6914766
  18.7008905  30.2536321  13.5060894  65.2284956  55.3202486  41.2934017
  65.9674978  54.7802925  41.0131407  64.8583698  55.6609535  40.4790545
  12.4874365  38.3577776  10.1925755  13.4075248  38.5906243  10.0682712
  12.4772632  37.4009156  10.1692331  38.9394665  29.6801019  30.9163618
  38.6258173  30.1782799  30.1615930  38.6017537  30.1564264  31.6748452
  22.9752970  42.9348850  17.4317217  22.6970768  42.0231199  17.3450887
  23.3479667  42.9890013  18.3117342  68.6164093  59.3098068   4.8654377
  69.3857622  58.7461853   4.9470526  68.0609465  59.0655518   5.6057298
  24.3966627  16.4272916  41.8451166  23.7940502  17.1680677  41.9109964
  24.5703793  16.3424945  40.9076357  33.6459661  30.4543567   0.8629204
  34.0217662  31.2782264   1.1731571  34.3859172  29.9824452   0.4808176
  21.9063783  16.1897659  29.4751287  22.6821733  15.7305431  29.1534328
  21.2647915  15.4965365  29.6301413  37.9532238  17.9524706   0.0997965
  38.2979961  17.2469567  -0.4475696  38.7271877  18.4481047   0.3672974
  70.7448530  37.5719929   1.1781399  70.6510210  36.8854642   0.5177572
  71.5142441  37.3129678   1.6852611  77.5577736  54.5058680  69.2226791
  78.1437874  55.2606058  69.2792130  78.1420898  53.7477589  69.2314196
   1.0806983  80.5622959  55.5974674   0.5762868  81.2376213  55.1438761
   1.9664712  80.9210014  55.6519413   8.1448668  32.5312638   2.5629917
   7.5889468  31.8039441   2.8426209   7.7953368  33.2920289   3.0269918
  69.5690823  55.2104759  12.2216177  69.4410038  56.0274315  12.7037096
  70.1121283  55.4568338  11.4728594  74.1544056  25.0874972   1.9899206
  74.3100357  24.1898608   2.2836250  74.9203873  25.5749130   2.2931257
  15.8899379  48.8876247  25.2975988  16.4238679  49.4294214  25.8786368
  15.7698298  49.4235659  24.5136523  84.5677948  30.9993672  11.9969785
  84.1594601  30.9104705  12.8581333  83.8346386  31.1381412  11.3974345
  24.9924111  77.0489931  13.2689548  24.1065025  76.8014050  13.0042005
  24.9204993  77.2301722  14.2060959  64.2394638  26.5261054  65.3528738
  64.6828508  25.7612729  65.7198477  64.5232105  26.5518904  64.4390583
  21.8882823  23.2158017  20.4635191  21.0834956  23.4108210  19.9833953
  22.4581933  22.7997422  19.8167360  37.7478290  76.8043566  27.8709197
  37.1360183  76.8379211  27.1355343  38.6135459  76.8070745  27.4625587
  73.8345671   7.2511959  38.4152389  74.7470474   7.1848106  38.1338143
  73.6927176   6.4725775  38.9536285  83.3316422   5.5139416   8.5275024
  82.3915100   5.3339964   8.5252517  83.5848999   5.4763645   7.6051795
  59.8606062  53.4786320  52.7065182  60.5714083  54.0137482  53.0595779
  59.4409752  54.0385532  52.0533514  11.2286520  11.3627005  16.8093479
  11.3234949  11.0559380  17.7110863  10.3605473  11.0596311  16.5433097
  20.3917170  16.4351749   2.1638738  20.1393700  16.9944549   2.8985572
  20.7438493  15.6452656   2.5740898   2.8376561  25.0446033  15.7819211
   3.1488308  25.9251404  15.9918213   2.5187886  24.6982551  16.6153467
  15.8851516  44.2407131  21.0149479  15.8103025  43.4476662  21.5457058
  16.6632915  44.6832275  21.3539338   7.3841655  21.9179392  14.3471253
   7.0680314  22.7316260  14.7398162   8.1308961  21.6644597  14.8896861
  29.7963667   5.5159360   9.7773576  30.0761580   6.2062937  10.3784859
  30.2545476   5.7101417   8.9596856  17.5344479  13.5827398  70.0689650
  17.5559986  13.2334113  70.9598827  17.6742780  14.5234752  70.1771116
  41.1091375  78.4757996  37.1121192  41.1620808  78.1679869  38.0169272
  41.9713068  78.2841682  36.7430973   4.6605745  70.2650118  37.1251130
   5.4354441  70.8216524  37.2023177   3.9667854  70.8587408  36.8381071
  32.8059673  48.1079483  19.1133273  32.0992422  48.2253408  18.4785128
  33.0907059  47.2024345  18.9900279  58.4420443  46.2646198  61.2571478
  58.9612627  46.9841623  60.8981180  58.6811495  46.2357092  62.1835470
  40.4700565  12.5966978  67.4163914  40.9684563  12.8425860  66.6370535
  40.1698303  11.7055941  67.2374153  18.2835233  10.1177180  33.7631321
  17.9012620  10.9941065  33.8084197  19.0164185  10.1440048  34.3782783
  16.9587660  43.5364342   4.9762163  17.8146958  43.2765818   5.3169429
  17.1012068  44.4099855   4.6117318  49.6971750  54.2858171  15.6370068
  48.9864111  54.6980762  16.1280167  49.3534231  54.1956043  14.7482288
  59.2908525  44.8922539  50.7254171  58.5895109  44.2954063  50.9864283
  58.9247227  45.7661247  50.8615255  40.2156496  68.9220142  52.0874548
  39.7893596  68.0696201  51.9983912  40.8838034  68.7866163  52.7593756
  34.7477245  32.8772950   1.4357027  34.9166369  33.3341861   2.2596872
  35.2459097  33.3689141   0.7827449  79.1857338  18.5154343  66.7131662
  78.3588552  18.0413055  66.8009567  79.8295164  17.9568827  67.1488190
  79.3224335  33.8068843  55.7025099  80.2270985  33.5983419  55.9356022
  79.1266155  33.2308245  54.9635649   9.8013228  78.8691664  37.1616054
   9.6161127  79.7313643  37.5338173   9.2069840  78.2767868  37.6221251
  57.3975372  11.7781198  63.3519077  57.2890568  10.8292031  63.2884884
  56.7114735  12.0576429  63.9580584  77.1431446   8.5035700  62.9495096
  77.1818352   9.4586492  63.0000830  77.2005272   8.3107561  62.0136881
  82.5137520  71.3476419  39.4636250  82.9303932  70.5246210  39.7191215
  83.2124996  71.8497419  39.0442467  32.2214079  68.6135769  23.7306213
  31.7405534  67.8754568  24.1050386  32.5088310  68.3016586  22.8725266
  37.5126839  68.4446526  22.9007649  37.2829700  68.9090109  22.0958829
  38.4312248  68.2021952  22.7835727  50.6720209  52.8050280  47.7147818
  50.4875326  52.5403738  48.6159801  50.6209087  53.7607288  47.7305841
  19.2806983  40.8792305  13.6747491  20.0488520  41.4485359  13.7201500
  18.6085451  41.3436794  14.1734779  57.7288294   8.3978349  61.9601393
  57.2568274   9.0362108  61.4254236  57.2722673   7.5710046  61.8047905
  30.5736542  69.7521734  40.7421398  30.1630044  70.5368042  40.3788853
  30.1807570  69.6559906  41.6096735  59.7171688  67.7783775  66.8573952
  58.9970589  67.8661680  66.2329197  59.3258476  67.9884815  67.7053070
  40.1482964  73.6651230   6.2536228  39.8308635  73.7225771   5.3524184
  41.0020161  74.0976048   6.2348831  31.0391927  37.3423719  27.6973295
  30.7703066  36.4773488  28.0066323  30.3508306  37.9316616  28.0057502
  14.8854136   7.9359245  65.5725241  15.2599823   7.2099155  65.0736856
  14.9485159   8.6884242  64.9843121   2.1945052  50.9816360  17.6165795
   2.8921798  51.0658503  18.2664955   2.5482836  51.3971901  16.8302035
  34.6067595  43.2094955  19.2191052  33.8193440  43.0910635  19.7503138
  35.2803898  43.4748888  19.8452187  79.6195650   7.6138157  63.8661671
  79.6478271   7.3000854  62.9622841  78.6904764   7.7678877  64.0372849
  67.3023272  62.1296167  62.2401285  66.9577265  61.3622522  62.6968956
  66.8957186  62.0955658  61.3742495  45.5744839  71.1991215   1.9172609
  45.8136082  70.5784464   2.6056054  45.6716728  72.0592070   2.3259640
   9.1939217  24.7255254  66.8743134   9.4679797  25.3502965  67.5457191
   9.2951125  23.8687015  67.2888565  14.6623349   4.0412378  70.5097818
  14.9199951   4.7213256  69.8874331  15.4903138   3.6960119  70.8437014
  53.8988495  59.4495487  53.2613850  53.3839417  58.6592436  53.0985546
  54.2849064  59.6631336  52.4119329  60.0364494  78.0319118   2.4720298
  59.5171356  78.6687040   2.9629895  60.9313297  78.3689880   2.5144204
  53.5790205  65.0633430  33.8459158  53.5106945  65.8419609  33.2933593
  52.9718971  64.4364977  33.4525990  55.0889587  49.2958450  55.8994436
  54.3360519  49.7994280  56.2089014  55.2124310  49.5814514  54.9942303
  78.2946301  79.1625309   6.1795330  78.6691713  79.1776609   5.2987820
  78.3155060  80.0761223   6.4644051  53.4990597  57.9897785  18.4246993
  54.2586660  58.4794903  18.7399912  53.8316727  57.4823570  17.6843441
  43.6223316  35.1916099  16.2913084  43.6951017  35.7379913  15.5087459
  42.7215767  34.8682022  16.2747061   6.0405231  39.0957117  22.3804784
   6.7320311  39.1436911  23.0405879   6.3726932  38.4768343  21.7301822
  47.8473234  77.2429466  65.0030661  48.7508488  76.9304943  64.9556446
  47.3164272  76.4716148  64.8044920   0.3063121   1.8326154  56.0818624
   0.9502153   1.8248546  55.3736544   0.3396219   2.7251580  56.4260864
  65.0274944  74.9926901  47.1040249  65.2661896  74.7525835  46.2087011
  64.7471142  75.9056950  47.0404911  54.0792847  11.9146204  33.1754923
  54.9420309  12.2173560  32.8922081  53.5774422  11.8289828  32.3649049
  34.9858379  48.1843996   9.7522610  34.4354725  47.4013138   9.7625250
  34.5040107  48.8226986  10.2782404  80.2614594  53.7951851  43.1667757
  80.3810596  54.2273569  44.0124464  79.3828440  53.4181309  43.2126331
  69.4801998  16.4912915  14.2258596  69.8127508  16.8050790  15.0667989
  68.5325146  16.6134524  14.2824185  42.2255468  68.4425068  69.2471313
  43.0203009  67.9130268  69.3122911  42.1751451  68.9029217  70.0848150
   7.3507959  31.8466020  10.4373670   7.3527765  32.0163298   9.4953376
   7.0942783  32.6807952  10.8304965  17.9449284  31.5921926   0.5289445
  18.2210958  31.9065642   1.3898352  18.3335376  32.2119904  -0.0883586
  79.9429274  14.5472920  40.2614546  80.8394146  14.5304108  39.9264169
  79.4259977  14.1104567  39.5845580  49.0845776  71.1109400  67.6824045
  49.9041796  71.5937185  67.5755835  49.0703487  70.8648634  68.6073208
  39.4484472  55.1401043  16.8289006  39.7363853  55.8546400  17.3970222
  39.9504662  55.2581120  16.0224998  78.8950777  42.5143766  58.4811258
  77.9720592  42.5376511  58.2286739  79.0959167  41.5826225  58.5690355
  45.7591867  55.8550596  20.3136969  44.9896193  56.1316729  19.8162198
  45.4086590  55.2914429  21.0034037  10.0720799  78.0582428  61.3112068
   9.6012127  78.8168144  61.6562939  10.9492099  78.1291437  61.6878319
  85.5339241  14.5642483  35.7645869  85.8888721  14.3177581  34.9104834
  85.0974274  15.4019594  35.6098557   1.9916892   2.0427375  59.6943760
   1.9170420   2.6605028  58.9670324   1.4662820   1.2897187  59.4239283
  42.4271488  74.9960661  68.0801964  41.5058661  75.1790810  67.8958797
  42.7020264  74.4137955  67.3719311  50.9178686  68.7669325  66.2588692
  50.2972174  68.0830669  66.5105629  50.3920031  69.5658922  66.2220669
  14.3487108  58.6107779   2.0795967  14.2520940  59.5630264   2.0684534
  14.3866897  58.3630657   1.1557856  82.7113533  15.8052969  35.5530047
  82.7661705  14.9079752  35.8816981  83.0257320  16.3455462  36.2779403
  41.1002684  38.7146997  26.1734986  41.7619944  39.0507770  25.5690145
  41.0453939  39.3779731  26.8614602  75.7319355   1.9413416  28.8995171
  74.7876883   1.7856902  28.8796020  76.1123228   1.0828722  29.0854430
  25.4413486  61.5906954  28.7420297  24.8734570  62.3547888  28.6425686
  25.8795166  61.5060806  27.8952217  32.5291920  69.7990894  66.1643267
  31.8721771  69.2077875  66.5316486  32.4292278  70.6088352  66.6648817
  25.2206922  47.3937416  43.1128168  25.7718754  47.1432400  42.3714161
  25.7973003  47.3254204  43.8737965  10.0230360  55.1466084  50.3860950
  10.7703805  55.5687666  49.9624348   9.3484807  55.8251762  50.4134750
  38.4401083  42.2067499  21.4276457  39.3273020  42.4433613  21.6980720
  38.5581350  41.7422962  20.5990434  67.5202417  28.9415741  66.8877697
  68.0677032  28.1664658  67.0131731  66.6231012  28.6141515  66.9523621
  34.3085074  66.2419653  30.8775973  34.2434406  66.1528969  31.8284202
  34.8675060  65.5137730  30.6065154  25.6104088  42.6154900  53.1693506
  25.8104730  43.5474682  53.0820513  25.9212089  42.2262144  52.3519754
   3.2724732  50.0473309  14.7274375   3.5339320  49.3670893  15.3480375
   2.5692043  49.6473646  14.2159009  13.7002611  58.9042330   5.6306273
  13.3917880  58.3348036   6.3354886  14.2444837  59.5570612   6.0709327
  15.0928736  15.5160964  56.2609482  14.5821214  15.6781197  57.0541143
  15.8675516  15.0445163  56.5670824  37.0361185  50.3779364   1.2214225
  36.2721729  50.7475519   0.7786995  37.1548390  50.9293604   1.9947711
  48.9134407  23.0530596  22.3233056  48.1375980  22.7394557  21.8585968
  48.5686541  23.4571433  23.1195903  56.3502836  11.5942860  43.9848423
  55.9723425  10.8255935  43.5576391  56.0197639  11.5562391  44.8823595
   6.7213619  43.7670231  20.0302863   6.8508309  42.8186321  20.0256968
   7.0576954  44.0587759  19.1829419  39.3790293  15.9572911   4.7355363
  39.6099830  16.1400187   3.8247660  38.4282899  15.8468664   4.7240141
  36.5027356   3.5908711  45.4949951  37.4388909   3.4203386  45.5987501
  36.4256692   3.9829797  44.6252012   2.5193033  33.6929512   6.4486289
   1.5928200  33.7804008   6.2245470   2.8092486  34.5884728   6.6224265
  26.0426021  16.4038360  56.1835432  26.0089183  16.0093820  57.0550346
  26.1388803  17.3417485  56.3487148  31.1421633   1.9683857  50.0070906
  31.7628264   2.4624172  49.4714212  31.3392711   2.2314535  50.9060764
  86.0926437   3.2788488  63.8074493  86.2653065   2.5935853  63.1618214
  86.8886185   3.3141568  64.3379354  85.6078529  74.6292686  52.3761225
  86.2747955  75.3102112  52.2881460  85.2190590  74.5607233  51.5041256
  54.7512913  61.9091845  47.8695202  55.5550480  61.8498564  48.3859301
  55.0342560  62.2612715  47.0255995  84.4135475  80.2557564  36.1177826
  84.9310493  80.3514004  36.9173360  84.0015411  81.1110306  35.9954000
  32.1999907  21.9595981  35.5176258  31.6840744  21.1533546  35.5117846
  32.4715424  22.0635819  36.4295888  35.3219986  23.0646276  43.9059830
  35.3279018  23.5022688  43.0547094  36.2098503  22.7208209  44.0047073
  46.6051149  23.3373260  69.9843979  46.8255997  24.2168212  70.2911663
  46.8286610  22.7646899  70.7181168  38.4262347  37.0923471   8.4712958
  39.1753960  37.3974729   8.9830428  37.6633525  37.3305345   8.9980888
  79.6818686  12.3742127  62.8660345  79.8424864  13.2003343  62.4100113
  80.3094673  12.3736310  63.5887766  33.7288523  70.9696436   6.7172807
  34.1472816  70.5068493   5.9913528  34.0837693  71.8574429   6.6716856
  24.3986034  13.4340966  15.6334651  24.1602945  12.5146067  15.5152273
  24.2306900  13.6078489  16.5596652  53.3208656  28.2698059  13.0724633
  53.4988546  28.3783889  12.1382463  52.4154043  28.5612988  13.1792367
  75.2264309  11.1039388  51.2733793  75.9611511  10.5799401  51.5925169
  74.9672842  10.6798661  50.4553127  13.7374556  24.1948485  61.7561531
  13.1740665  23.5004735  61.4145851  14.6269989  23.8625383  61.6356802
   6.6701382   7.1805638  34.5191908   7.0698208   7.5976968  35.2823973
   7.4112064   6.9307661  33.9672399  51.3259983  60.3861761  56.0116196
  52.2677422  60.2730036  55.8829880  51.0293245  60.8399010  55.2227259
  46.8897533  16.1839151  48.7401819  46.8423080  15.5274653  48.0451632
  46.1099625  16.0260487  49.2723799  43.1153440  11.9510841   8.8272637
  42.5840092  11.5699482   9.5263022  42.7513981  11.5831220   8.0220437
   6.4091158  37.1182537  59.9825668   6.7319554  36.4983130  59.3285942
   5.4729635  37.1949697  59.7982693  26.8236637   5.3716046  45.4260302
  26.6471171   4.6961981  46.0809231  27.6915812   5.7049435  45.6537056
  24.4873190  22.7688217  40.3093576  23.7730002  23.2666826  40.7069969
  25.2625012  23.0190277  40.8120680  74.8354435  61.3659286   9.5715690
  74.2170572  60.6545448   9.7382182  75.2234793  61.1521244   8.7230712
  60.7681179  69.9744749  56.6047668  60.0601149  70.2411032  57.1911716
  61.0332966  69.1126060  56.9258547  39.8032928  34.5955276  58.0613518
  40.6143713  35.0993586  58.1287146  39.8485494  34.1829538  57.1988153
  72.3798656  58.4699678  61.8339968  71.7366314  58.6547804  62.5183392
  72.7345514  57.6112461  62.0642710  68.1196690  75.7545280   6.3624918
  67.6035261  76.4530373   5.9601027  67.8992319  75.7993984   7.2928822
  74.2865849  70.7032299  54.4576931  75.0085735  70.5369997  55.0637722
  74.0519142  69.8381996  54.1217136  31.5914154  19.8578465  48.9640522
  30.9412956  19.2557573  49.3260813  31.9673514  20.2928543  49.7293472
  24.2686868  12.6995051  41.4531231  23.7333083  11.9706142  41.7666817
  24.7288084  13.0113161  42.2324133  72.7475166  20.7541060  57.8443003
  72.0679235  21.1597896  58.3826351  72.6098442  21.1185718  56.9699764
  83.3288383  53.3929729  45.9968758  83.9638233  52.8114128  46.4149952
  83.2696152  53.0748558  45.0960302  42.0565557   6.1204761  18.8393199
  42.8859234   5.8430028  18.4502304  41.4279079   6.0781389  18.1187367
  28.3224940   0.9495862  31.8364000  28.4016681   0.1275486  32.3203588
  27.5558853   1.3784988  32.2166300  84.9874973  18.1313539  63.4570169
  85.2334309  19.0165436  63.1883383  85.8112812  17.6438892  63.4583378
  46.0754395  66.1909151  53.9526463  45.6914234  66.1337185  54.8275709
  46.6550779  65.4313326  53.8953638  49.5772219  64.1040611  42.9290581
  49.4244909  63.6874628  43.7772036  50.5295515  64.1092300  42.8327751
  63.6792374  72.6559496  65.5951834  63.1411409  73.3698034  65.2529907
  64.4851875  72.6954937  65.0802946  30.3881121  33.2411265  62.9260254
  30.4026079  32.9963088  62.0007753  29.6473646  32.7566123  63.2904053
  81.7929935  29.8588061  42.6230955  81.2545967  30.5738997  42.2839785
  82.3431110  30.2688932  43.2904959  76.5161943  78.4136009  66.0355902
  76.6294813  79.1624212  66.6209650  76.2160826  77.7064419  66.6066360
  76.6830301   0.1229476  55.7517529  76.9340181   0.9837115  55.4166079
  77.0343494  -0.4953176  55.1110077  29.2320991  40.6686974  41.5517282
  29.7589183  40.3526688  40.8176851  28.3593535  40.3093004  41.3924170
  21.0413671   4.3479937  54.3021154  21.7233157   5.0189722  54.2710543
  20.8059478   4.2884403  55.2279997  35.2814412   8.9191365  19.9866569
  35.2738118   9.4896513  19.2180955  35.4810834   9.5043206  20.7173657
  34.6321774  23.2972240  46.7942810  34.3272376  22.3961806  46.6876793
  33.8910961  23.8353848  46.5160418  69.3212605  69.9383593  47.6632547
  68.3793497  69.9054527  47.4960709  69.4104958  70.5215120  48.4170485
  53.1148720  68.0681515  36.8819118  53.8387251  68.6330605  36.6114473
  53.5028696  67.4716806  37.5221562  57.9457140  68.4439850  38.7580466
  57.3344707  68.8635492  39.3635058  57.6591444  67.5313807  38.7224936
  14.4525337   0.8714509  66.7569113  14.1373837   1.0211719  65.8655643
  15.0121820   0.0981161  66.6863441  74.4895124  14.2939413  69.9554968
  75.3088951  13.7991583  69.9616194  74.6901703  15.0955737  70.4385614
  17.0099199   8.2547992  47.7897263  17.2501969   7.3400038  47.9368591
  17.4195659   8.4786040  46.9540644  48.3392429  78.4717417   4.1474569
  48.1164074  79.1723204   3.5344589  47.6111269  78.4564161   4.7686201
  15.4026675  45.1379251  31.9423413  15.7286763  44.9333858  32.8187633
  15.8713412  45.9341860  31.6922522  20.4441118   7.6190549  42.5792265
  20.9881139   7.3070657  41.8560696  19.7016644   7.0152014  42.5982618
  22.9500628  55.1541710  14.7011340  23.3035541  55.1038504  15.5892467
  22.8673244  56.0921383  14.5290673  12.8396153   6.5644813  27.6582384
  12.1578908   7.1615016  27.3499370  13.4925604   6.5646183  26.9583130
  81.9600964  63.6406565  58.8183832  82.7833271  63.9427710  58.4346485
  81.2818623  64.0204096  58.2597971  71.2245703  27.9278231   3.3544290
  71.3699722  28.3572173   2.5113919  70.7769918  28.5869789   3.8849154
  23.3118272  24.5491886  22.5431347  24.0914989  24.0915394  22.2286534
  22.5828028  24.1071844  22.1079493  37.1607518  65.7000542   9.2447668
  37.5328469  66.2033224   9.9689883  37.7694154  64.9716282   9.1216725
  36.4132667   1.6423151  32.8081846  36.5268445   0.7024741  32.9497147
  37.2764969   2.0169595  32.9834199  26.5406775  31.1326146  54.1635942
  26.0145926  30.6818080  53.5031128  26.5273476  32.0510936  53.8944244
  31.5403295  46.8090296   6.0856807  32.3781514  46.4288998   6.3498616
  30.8825183  46.2337923   6.4763445  18.1774342   5.6451631  48.6175346
  18.7956715   6.1526090  48.0916929  18.6422122   5.4764318  49.4371367
  66.5061331  54.7521973   6.2194991  66.0428762  54.5988798   5.3960186
  67.3901653  55.0051022   5.9534985  42.3876286  46.0977221  19.3939328
  42.8167915  46.0238743  18.5415244  42.2973013  47.0400333  19.5357788
  21.2797379  22.8996778  36.6345024  21.3116241  22.3649073  37.4277449
  21.8683100  23.6324406  36.8158221   1.5262870  17.3967755  37.4206638
   2.4174964  17.7424419  37.4705887   1.5876037  16.6639388  36.8079472
  84.0768719  59.2978334  40.7352257  83.6022186  60.0586319  40.4003763
  83.5154343  58.9514923  41.4288139  64.8262787  70.5715656  30.4408813
  64.0432405  70.0844717  30.1843190  65.0919580  70.1774979  31.2717605
  82.0281410  61.6816616  49.9464512  82.8010082  61.1192560  49.8954725
  82.0243931  62.1593523  49.1169739  76.1961508  31.3291287  62.3635435
  75.4754686  31.9546223  62.4384356  76.0259342  30.6842685  63.0501366
  79.9088144  75.8042002  66.1592007  80.3695011  74.9753523  66.0287714
  80.5956841  76.4694357  66.1155939  15.1966918   9.9659026  49.4363594
  14.7123432  10.3374338  48.6990643  15.7943225   9.3341744  49.0363693
   9.0261883  38.0321908  41.8323421   9.3666828  38.1682920  42.7165222
   8.1229073  38.3463550  41.8725443  80.0373745  66.0360861   9.0584660
  79.5715332  66.5628386   9.7078913  80.5712032  65.4339218   9.5767874
  43.3137798  68.2665730  58.3873081  43.4897757  67.8569508  59.2343426
  42.3890686  68.0840302  58.2205057  31.5087247  77.0391178  67.8962898
  31.9659829  76.8146181  68.7066889  30.9223652  76.2990236  67.7392101
  59.0321302  61.1329269  42.9971218  59.2956114  60.6701326  42.2017431
  59.3542767  62.0256519  42.8726435  61.7682457  28.0859017  54.5783281
  61.7977190  27.8356338  55.5017614  61.7081308  27.2550678  54.1068029
  51.7737675  54.2631245  18.0586278  51.3297129  54.6848202  18.7943041
  51.4220619  54.7011757  17.2836125  24.4252896  40.7686520  65.0414753
  24.2389059  40.0142860  64.4825220  24.6969366  40.3869581  65.8761930
  69.2664909  71.1846924  61.6665888  69.6310949  72.0684147  61.6182613
  69.6443367  70.8129597  62.4636269  35.2901530  69.3988132  36.9512486
  34.4724727  68.9090204  37.0391989  35.7114196  69.3172455  37.8068852
  10.5879414  15.7080805  27.9009485  10.0176024  15.6875896  27.1324921
  11.1562061  14.9447417  27.7978826  29.2307234  21.7642426  52.9571152
  28.2913661  21.7618418  53.1410599  29.6417856  21.6114426  53.8079453
  39.7424746   9.6091717  66.5407705  40.6331491   9.3431896  66.7692089
  39.2556453   8.7873775  66.4784527  22.3167133  23.2878447  28.6575603
  21.9835114  22.3906541  28.6415744  21.8535280  23.7024283  29.3854403
  31.8285012  52.7914762  15.4563367  31.4080238  51.9316435  15.4670858
  31.1206079  53.4066820  15.6477594  50.7492447  30.4837155   7.7039272
  51.2425423  29.7095227   7.4327922  49.8813963  30.1481795   7.9286295
  29.2185736   9.6599209  36.3904357  28.7482238   9.1016799  37.0096016
  29.8518705   9.0752506  35.9741092  39.0753126  27.4587297  46.5523720
  39.5011926  26.7683983  46.0441399  39.7412229  27.7395725  47.1800041
  34.2659974  74.8804903   1.0469992  33.5991383  74.2403793   1.2955803
  34.3318915  74.8004675   0.0954289  33.2405257  28.8473773  36.2960744
  32.8039908  28.3718085  35.5893183  32.5920248  29.4867778  36.5907693
  80.8974934  70.1542568  58.0114412  80.6371593  69.3559837  57.5518656
  80.9520054  70.8189631  57.3248386  22.6717949   0.2784014  56.0948372
  22.8635359  -0.2911956  56.8398380  21.8796492   0.7503244  56.3517904
  49.6008301   6.7625904  67.7321768  49.2802000   7.3275840  67.0291758
  48.8265991   6.5798044  68.2645130  14.5606196   1.9262329  57.8064442
  14.4705498   1.0898237  57.3497820  14.9504209   2.5124565  57.1578836
  10.5817211  30.9523702  50.9264421   9.8923498  30.5077314  51.4196920
  11.3838422  30.4865789  51.1628151  12.5732911   7.5464940  58.7258291
  11.7470360   7.3643798  59.1734552  12.9459822   6.6825211  58.5500908
  83.4466648  44.6929693  63.3269644  82.6040077  44.3267632  63.0585480
  84.0825272  44.0084362  63.1188202  41.8538666  17.7982628   5.7747161
  41.0694027  18.3238757   5.6179434  41.5730810  17.1292400   6.3990551
  52.9504108  39.9637604  10.3076208  52.2348976  40.1157761   9.6902329
  53.7271786  40.3017664   9.8619628  80.6896877  73.4825373  54.4053841
  80.6901455  73.7325573  55.3293562  81.5094090  73.8370180  54.0609360
  13.6926293  41.8969297  41.2773037  13.8446867  42.8402948  41.3336945
  13.6287713  41.7203093  40.3387070  79.7634172  80.0446033  53.6048222
  79.2560196  79.3185377  53.9675951  80.2036190  80.4310036  54.3618917
  53.7066364  59.9338388   3.8468647  54.1691923  60.7540131   4.0188909
  52.8099298  60.2020788   3.6463836  13.4506667  59.2857456  68.5541916
  12.6149750  59.3688726  69.0134764  13.3668363  58.4771538  68.0488396
  59.3834782  56.9106770  26.2057853  59.8138571  56.5913057  26.9988847
  58.4566259  56.7127609  26.3399792  75.5675936  70.9254551  36.8487763
  75.3336620  71.7766523  36.4786863  76.1655235  71.1326933  37.5669456
  25.3023958  21.6270375  50.1002264  25.0628519  20.8900046  49.5384121
  24.5639873  21.7191434  50.7023048  56.6646719  72.2533655  38.1430006
  57.5261831  71.8393946  38.1945872  56.8042994  73.1394005  38.4771848
  15.0755000  75.4999352  55.0701475  15.7125843  76.1536789  55.3581953
  15.3638315  74.6861458  55.4834747  64.7733450  49.7292185  54.7245789
  63.8372850  49.5493984  54.6368885  65.1964951  49.0692663  54.1753626
  50.4958344  50.3996801  67.4901199  51.1526108  50.5044270  68.1785297
  49.8185873  49.8516178  67.8866053   0.5246995  79.7357750   9.2901498
  -0.0549752  79.9296427  10.0267816   1.2500830  80.3526974   9.3873841
  67.2508287  65.1600742  50.6459427  66.4964437  64.8321867  50.1564264
  67.5114059  65.9547997  50.1803875  79.1350937  66.9253731  65.9907675
  79.4467735  66.2769985  66.6221952  79.5278788  66.6584158  65.1596880
  43.8532734  39.3165660   7.2931004  43.2159615  39.7805285   6.7501378
  44.4568872  39.9979448   7.5890756  44.8381948  16.3257480  52.4328566
  44.9961567  17.1645200  51.9995689  45.3928947  16.3507283  53.2125521
  45.1077461   6.9771194  50.1216030  45.5405664   6.1296594  50.2251101
  44.5919561   7.0818669  50.9211159  29.6997571  48.0966520  23.0407381
  29.8513222  48.6065340  23.8365269  30.5678082  47.7810287  22.7895451
   5.8366412  24.9858570  63.9589882   5.4261839  25.2204394  63.1266832
   6.4866805  25.6726241  64.1074276  67.8055239  79.9618959  60.6152821
  67.1553469  79.8632002  61.3108110  67.7324772  80.8779240  60.3473616
   9.0219367   7.1153766  25.5129075   9.8493433   7.2293353  25.0453138
   8.4870994   6.5803814  24.9264240  78.5314035  22.6040006  37.2580194
  79.1148615  21.9201779  36.9290900  79.1200161  23.2782722  37.5973248
  39.9361897  77.7716637   3.8376570  40.5910873  78.3826160   3.4999013
  40.1922417  76.9226837   3.4772325   0.3470809  20.9009862  56.8150854
   0.6596304  20.0057149  56.6845703  -0.0606920  20.8884716  57.6809931
  43.1992054  40.2598858  42.9108715  43.3509779  41.1722660  43.1573486
  43.4005213  39.7612023  43.7027168  71.1627865  38.5433650  47.6434946
  71.4590311  39.4045067  47.9382896  70.5705357  38.2446337  48.3335876
  11.7850220  58.6829042  30.7739425  11.3081753  59.3963957  31.1979485
  12.6365077  59.0610933  30.5544496   4.3250266  64.5864391  23.6010385
   3.6617553  65.0264692  24.1327119   4.4626826  63.7456799  24.0374017
  15.4054296  10.7495117  24.8744226  14.7377312  10.7013595  25.5585957
  15.0551426  10.2173746  24.1600275  34.2913532  41.0147905   7.9683405
  34.9961495  41.4041376   8.4859341  34.2206502  40.1182365   8.2960939
   4.5143297  25.7553864  35.6211948   5.1236016  25.0243735  35.7243466
   4.5437333  26.2121415  36.4618754  71.3802385   9.1861659  58.1258917
  72.1405077   8.6546254  57.8899002  71.4109659   9.9290657  57.5230789
  76.3108587  26.7283487  62.2501707  75.4674339  27.0617747  62.5562716
  76.6797590  27.4462700  61.7356539  58.1967115  22.8700042  38.3258462
  58.3292389  23.3517885  37.5094199  57.6852179  23.4646153  38.8745189
  69.4825983  29.9203300  62.7777719  68.7802362  30.1037812  62.1538591
  69.3756914  28.9938235  62.9931545  45.5184221  17.3427999  67.0672274
  45.5613422  16.5086508  66.5996981  44.6682549  17.3275256  67.5067949
   4.8653835  36.9164205  51.7914391   4.9352083  36.1307311  51.2491751
   3.9341429  37.1371770  51.7744589  81.1144924  64.0372610  63.9878845
  81.4029408  63.6572647  63.1580448  81.1140919  64.9816132  63.8315821
  20.4296350  34.5847058  58.5985231  19.8305607  35.2840877  58.3373642
  20.1103282  34.3035793  59.4559860  25.5557442   6.4882171  49.6494532
  24.9478531   5.7702690  49.4726753  26.3360715   6.2725860  49.1387463
  49.9781656  15.4052210  58.5760164  49.6820641  16.1283731  58.0231953
  50.8824015  15.6277668  58.7975168   2.4899557   3.7620330  30.2606273
   2.2437169   4.4827545  29.6808362   3.2891691   3.4052336  29.8730922
  80.4184723  36.9917583  47.5266361  80.4652786  36.1980200  46.9936991
  81.2860966  37.3874521  47.4436951  11.6546953  54.6010351   1.5335391
  11.3631129  53.8507509   2.0515043  12.0401859  54.2141104   0.7474611
  85.1636600  72.7642822  40.1079178  85.0829411  73.0063248  41.0304880
  85.3151035  73.5938501  39.6550226  18.7868655   4.4701192  69.0151644
  18.3485019   4.0211707  68.2923126  19.2143202   5.2224350  68.6058521
   4.0166482  47.1778584  59.9623346   4.2556730  47.6627779  59.1724300
   3.7219033  47.8504705  60.5762959   4.4596398  27.1687031  52.5979996
   5.2778554  26.6962361  52.4446058   3.8035020  26.4809847  52.7109385
  21.0273719  59.6214390  29.1697693  20.2477360  59.0683794  29.2199874
  21.0625672  59.9033642  28.2557034   1.1915871   5.2613884  62.3876953
   1.4935188   6.1666214  62.4626780   0.7994539   5.0683826  63.2392931
  32.8924894  33.1492376  52.3095131  32.8401494  32.7201509  51.4554787
  33.1933045  34.0365934  52.1136951  55.7617426   7.7568579  18.3716547
  56.5019941   7.3316520  17.9386842  55.1186275   7.8862143  17.6745892
  36.3882542   4.8698926  65.9802771  35.6661344   4.2453766  65.9113312
  36.7606211   4.9037078  65.0991249  21.7745996  12.1515954  59.9464178
  21.2153029  12.6967752  59.3930674  21.3419533  12.1538615  60.8002615
  62.0130157   1.9527146  23.7429810  62.1640015   1.6894796  24.6508050
  61.0633373   1.9031158  23.6340094  15.6825018  21.8840694  47.3395538
  15.1539290  21.9038272  46.5417767  16.0345626  20.9945440  47.3716354
  23.2623529  29.0689135  58.9328194  24.0383172  29.6287322  58.9060831
  23.1743693  28.8253474  59.8543215  32.7828741  28.9847708  59.3969250
  32.4890518  28.9914632  60.3078890  32.1505356  28.4257436  58.9454126
  22.1365905   5.6744915   9.1616005  22.8543973   5.0654781   8.9881450
  22.5605607   6.4403683   9.5487893  20.7680988  34.3844318  48.5097837
  20.5335140  34.3381000  49.4366360  20.7208157  35.3164935  48.2970524
  73.8378334  25.1908803  58.3918524  73.3335209  25.0084519  57.5990009
  73.4660673  26.0055304  58.7300396  86.3356876  41.8298197   5.5106157
  85.3814316  41.7550898   5.5041689  86.6393280  40.9905481   5.8565295
  69.3132305  39.0716314  12.5799739  68.9714479  39.0068531  13.4717250
  69.0875340  39.9589729  12.3008382  50.7878065  16.5487683  53.5804224
  50.1643419  17.2534394  53.4044600  50.9932518  16.1896563  52.7172518
  20.9919620  28.1325459  49.2346382  20.2402878  28.3307600  49.7931433
  20.9456968  28.7807441  48.5318375  30.8316159  26.0129428  66.7707729
  31.7531872  25.8542156  66.9750834  30.8196878  26.1735177  65.8272123
  81.4836884  75.8407259  60.5440760  80.9221458  76.5630341  60.2626991
  82.1959209  75.8279657  59.9047089  16.4318597  45.4732990  44.5787430
  16.1823940  46.3756609  44.7780895  16.7059433  45.4975462  43.6619425
  25.0029469  19.6013904  33.9797354  24.8938608  20.4877353  33.6351657
  25.8554292  19.3188906  33.6485267  18.8288355  25.6217360  63.5094357
  19.1747308  25.6152201  62.6169395  19.1917741  26.4161229  63.9011717
  27.1860123  12.5275517  40.8693647  27.7046943  13.2596445  40.5358362
  26.4581585  12.4491191  40.2526712  48.2637691  81.3564491  40.1228333
  47.6144409  80.8076000  40.5625725  49.1050005  81.0507298  40.4620934
  11.5650046  37.1102262  32.4963069  11.4093351  36.2547755  32.8965616
  12.5062394  37.2533321  32.5954461  41.6267157  44.3356466  69.3134594
  41.6797209  43.6652899  68.6322498  41.1406755  45.0528193  68.9064503
   2.4716489  60.6723881  68.3841658   2.2147381  59.8517847  68.8046885
   1.6959289  60.9428883  67.8929234  29.7527719  54.2688990  15.9499764
  29.8958492  54.8165798  15.1780915  29.0070796  53.7160349  15.7164907
  18.9243889  38.7763262   1.9016063  19.1079021  39.7135162   1.8365540
  18.7387109  38.5056448   1.0024471  19.6474838  72.1061468   4.1395429
  20.5298901  71.7835045   3.9565310  19.1805768  71.3446379   4.4835392
  64.3066216  53.0398989   4.7660273  64.5802402  52.4658394   5.4814452
  65.0359774  53.0149889   4.1466340   0.2338342  45.0721550  23.7404490
   0.4346708  44.6965933  22.8832150  -0.3027218  44.4080019  24.1731572
  58.4939384  47.9740858  13.0339229  58.0932665  48.6990166  12.5541627
  57.9564619  47.2138023  12.8118527  45.6445074  34.9071598  51.4274120
  45.8240032  34.4905996  52.2703218  46.0903168  35.7526731  51.4783430
  18.0107260  56.9998407  63.6681890  17.9303265  57.4806499  62.8444195
  17.2834444  57.3178864  64.2031097  14.8621416  47.9645300  68.4433031
  14.8104835  48.9196444  68.4069872  15.0596774  47.7010059  67.5445461
  63.4831762  19.1531873  24.8466301  63.8062763  18.4237826  24.3176627
  62.5750494  18.9229178  25.0428700  39.4441819  23.0592680  53.5429335
  39.3741822  22.2916436  54.1104603  38.6583328  23.5711432  53.7343931
  13.4638572  30.1734376  27.0910430  13.1542826  29.9128008  27.9584908
  13.6152947  29.3469882  26.6324782  60.2610207  57.8438234  43.9277554
  60.1591349  58.4431362  44.6671295  59.3653297  57.6134109  43.6810207
  39.6486330   7.2632498  21.5329123  39.0258741   7.3817617  22.2501016
  39.4363832   7.9615194  20.9135580  28.3316803  24.3792534  30.4135275
  28.9705467  24.5884848  29.7321296  28.7408876  24.6783829  31.2255001
  57.7032423  20.5618143  69.1055536  57.0865202  19.9601555  68.6885452
  58.0640745  21.0743809  68.3821535  36.9791055   8.8391411  49.3437195
  37.3337698   7.9664600  49.1738033  37.7455258   9.3721426  49.5552444
  49.7492647  38.9638138  60.0823689  48.9367390  39.1194057  59.6008825
  49.9020672  39.7770929  60.5634689  48.6450243  51.9814825   1.9443183
  47.9465723  52.1958876   2.5627273  48.5481787  51.0417795   1.7900145
  75.0554895  22.6931095  52.4500656  74.8466539  22.3292637  51.5896940
  75.6956148  23.3816195  52.2699881  53.9229202  43.2923365  63.6917210
  54.1768312  43.8983631  64.3877792  54.4720650  43.5387850  62.9474545
  48.1211185  63.9997625  13.5993564  47.9702234  64.7598648  13.0374789
  47.6759243  64.2155075  14.4187999  37.7569532  69.9161196   2.7062792
  37.4669361  69.5965528   1.8518804  37.5303340  69.2127085   3.3146283
  25.7259774  36.0886860  64.5102358  26.5408182  35.8459306  64.0705395
  25.5840397  35.3933072  65.1525211  36.7444539  61.2769794  43.7488031
  36.4742017  62.0983982  43.3383608  37.2968054  61.5463114  44.4826984
  42.3596668   1.6222955  47.7514839  42.7579212   2.1151981  48.4688902
  43.0494928   1.5616141  47.0906639  23.5782599  26.9414997  48.7022066
  23.4997654  26.3940692  49.4834805  22.6934266  27.2749543  48.5535097
  41.3883066  18.0978000  66.3242817  40.8758354  18.0858600  65.5159140
  40.7431173  18.2505763  67.0146608  21.6499758  27.3560357  44.5586348
  21.1663461  27.6212335  45.3409386  22.5705671  27.4212146  44.8125982
  22.9813623   7.4848729  64.0531778  22.1876550   6.9547331  63.9809847
  23.3415604   7.4987978  63.1664419  64.7098541  25.4973531   4.9832755
  64.6160460  24.5694089   4.7679821  65.3424263  25.8283925   4.3457031
  45.8194399  18.4159017  11.3944817  46.1959457  18.3250594  10.5191398
  45.3610802  19.2559230  11.3720644   3.0432764  10.5915189  66.0571957
   3.7884629  10.1678467  66.4831448   3.4371904  11.2488782  65.4836607
  42.9449892  77.1587849   1.6274688  43.7973118  77.5552559   1.8079935
  43.1534958  76.3067722   1.2442818  34.2636895  13.5874283  43.9231920
  34.2048359  13.7881553  44.8572588  34.6623588  14.3664980  43.5354471
  40.0512362  23.8854790  43.2593870  40.5393457  23.1476450  42.8939009
  39.9578094  24.4964504  42.5284863   9.1203076  21.3963723  42.7822876
   8.1736773  21.4479899  42.6501608   9.4807547  22.0601678  42.1943426
  33.6952281  10.0656939  60.5018091  33.5798454   9.4065100  59.8174143
  33.0742693  10.7578719  60.2747965   2.7326876   4.5113850   4.9828282
   1.9898604   4.1415361   5.4599565   3.4191531   3.8484627   5.0571972
  27.0757675  20.3159547  42.7228498  27.9777384  20.5167007  42.9726076
  26.5407634  20.7552481  43.3839273   1.3072112  60.4798460  56.6956472
   1.0858790  60.3534842  55.7730007   0.6268085  60.0045156  57.1724510
   5.7662314  62.2636461  53.7761545   5.8272624  62.5607347  54.6840334
   5.0286388  61.6535807  53.7728500  30.0169158  13.4581375  48.8035154
  30.0931191  12.5263941  48.5978985  29.0740991  13.6215508  48.8285875
  29.3202424  60.7758427  50.2269316  30.2421021  60.6669235  49.9933863
  28.8413501  60.3430128  49.5201445  48.3825636   6.1419499  23.5904527
  48.0658197   5.4937279  24.2195106  48.9620161   5.6488574  23.0096531
  45.8110619  61.1547804  10.0043523  46.3814640  61.3302994  10.7527280
  45.3822756  60.3263760  10.2191138  82.1868420  38.0832338  25.7423282
  82.3128223  39.0285301  25.8246493  83.0608749  37.7133775  25.8668733
   7.4296832   7.1557951  60.3984451   6.8150109   7.3640382  61.1020374
   6.9762826   6.4980292  59.8711824  84.8407173  79.6663523  28.4729457
  84.5831680  80.3890133  27.9005289  85.6850147  79.9362278  28.8342857
  49.0906000  11.0087860  45.6130266  49.4879246  10.4520202  44.9434185
  48.9621496  10.4274559  46.3625526  71.8856955  72.4506760  53.7575865
  72.1657610  71.5641499  53.9853287  72.5653505  72.7717543  53.1649590
  53.7065887  23.7789011  62.8748703  52.9781580  23.8031220  62.2543621
  53.2878685  23.7713575  63.7355947  20.6756401  54.6137857  51.2465191
  19.9878383  53.9547873  51.3407612  20.4954743  55.2488470  51.9396782
  57.9965162  79.4076777   0.3531202  57.9332304  78.4576893   0.4518716
  57.8952932  79.7481441   1.2419765  80.5332088  21.6749287  25.0517344
  79.9553347  21.2450552  25.6822109  81.4034367  21.6168976  25.4461575
  51.4684916  23.0663967   2.6100942  51.9204283  23.6790967   3.1902480
  51.9374800  23.1338072   1.7783871  63.3208561  26.6714835  40.6865311
  62.8221607  26.8951774  41.4723444  63.8768673  27.4348235  40.5303431
  51.4487457  21.3189363  58.4978151  51.4860153  20.8847594  57.6455641
  50.5851364  21.7312050  58.5190296  78.8022995  71.9996262   5.0746119
  79.4941425  71.4423847   4.7181502  79.2471981  72.5525093   5.7169622
  49.5220804  26.2162685  48.7765884  49.9204016  25.3639030  48.9527845
  49.8114109  26.7703056  49.5015430  32.2177243  66.0858870  26.7727518
  32.4693179  65.2252722  26.4376831  31.6447997  66.4479542  26.0968113
  11.9167066  25.0732994  37.8653550  12.7820933  24.8475838  37.5241947
  11.8871534  26.0293841  37.8298306  37.3258758  16.2871957  46.4473104
  36.4192390  16.4428270  46.7119217  37.8163981  17.0117557  46.8354225
  31.6978955  56.6328335  39.9569917  31.2071085  56.4660072  39.1522980
  31.5537930  55.8520603  40.4916477   2.8346148  74.2226219  40.3561068
   3.3210194  74.4994211  39.5795608   2.4063432  73.4080935  40.0927448
   1.9680187  27.4768519  60.4204273   1.8743758  28.2131815  59.8160410
   2.1286869  27.8844690  61.2714672  55.2827168   0.3918362   7.0524132
  55.9993076   0.1898568   6.4508045  55.6325054   0.1858762   7.9192811
   4.1678751  73.9890480  16.8814993   3.6740339  73.5162258  16.2115788
   3.4990072  74.3368340  17.4713242   8.6572617  25.5387378  55.2620459
   8.7933660  25.3152561  56.1827898   8.3959711  24.7144246  54.8515987
  46.0249424  37.0036602  56.1683464  46.6987419  37.6778054  56.2563896
  46.3405037  36.2778664  56.7067480  19.8022056  25.1539660  47.5208712
  20.4245782  24.4671249  47.7599049  18.9699590  24.6945953  47.4087238
  27.0829129  26.6502833  34.8587704  26.2303853  27.0829725  34.9057937
  27.5693440  26.9975948  35.6064272  19.1343713  41.9601679  50.5838633
  18.3346415  42.2005129  50.1159954  19.3356025  42.7251530  51.1228752
  50.6742001   2.8891873  38.7815189  50.8766985   3.5910034  39.4001293
  51.2783289   2.1838455  39.0133667   2.8081089  50.6420422  41.8663406
   1.9628415  51.0893774  41.8257713   2.8082654  50.2071667  42.7190542
  57.6082134  72.7269316  22.7210951  57.7908421  73.5686350  22.3034573
  56.7129707  72.8115654  23.0491304  69.6262455  71.5671825  49.8158503
  70.3977299  71.1866713  50.2356815  68.9893436  71.6600800  50.5243397
  51.5260839  43.5171890   0.0770781  52.4293184  43.2115030  -0.0062900
  51.5585852  44.1733694   0.7732129   9.8570830  65.5276203  27.9070258
   9.0641636  66.0403013  28.0640841   9.5403522  64.6373129  27.7544856
  48.1597757  34.5501018  61.9871807  47.2120380  34.6538830  62.0723343
  48.3313131  33.6585927  62.2905302  65.8505917   8.1650335  65.9416103
  65.6185007   8.9903212  66.3673639  66.3167286   8.4277707  65.1479387
  50.6938362  12.3829603  30.5588770  50.5838156  12.8293526  31.3984370
  50.1166105  12.8553665  29.9589825  50.9244013  10.7167780  64.2890024
  50.4415703  11.5142310  64.0718126  51.6691923  10.7164705  63.6877346
  45.6680202  14.5765758  59.4828463  44.9882364  14.0438211  59.0701723
  45.1975393  15.1129580  60.1209450  58.6012411  22.4998093  58.5870028
  57.7538967  22.4344587  58.1465816  58.4009743  22.8990173  59.4336176
  63.9055586  48.6092329  22.9220963  64.3069887  49.2313099  23.5288167
  63.1165838  49.0531206  22.6111150   9.7660023  65.4448557  18.8107514
  10.6825042  65.6453991  18.6209095   9.4943368  66.1257935  19.4261813
  48.8248491  70.1085711   6.1712277  48.6761475  70.3214693   7.0925277
  49.7706175  69.9765158   6.1055493  24.5072818  12.0527077  60.6752586
  23.6258984  12.2984982  60.3942204  24.5368552  12.2867215  61.6029406
  27.9070663  25.4557443  22.3842430  27.5566483  25.2005839  23.2376647
  27.4263811  26.2514448  22.1561360   8.6264193  79.2417717  41.7406082
   8.1670058  79.3988323  42.5655317   8.2207888  78.4499073  41.3875532
  40.0549936   8.7457144  54.1027021  39.5068908   8.7433100  53.3179665
  40.2181339   9.6724641  54.2780685  37.5101781  38.1285071  38.7431431
  37.0976615  38.9407897  39.0368462  38.4474945  38.3225870  38.7422895
  63.3991528  77.9042435  38.3799362  62.9655123  77.1312475  38.0184650
  64.1815138  78.0146074  37.8396034  77.7291632  13.7024570  18.8028610
  77.2889805  13.0288875  18.2844269  77.9569244  13.2632756  19.6222973
  28.4613991  37.8063726  49.2259598  28.1962967  38.2069731  50.0538921
  28.8283157  36.9586015  49.4767380  54.4848824   2.8551632   2.9316106
  53.6265707   3.2065588   2.6948524  54.3056440   1.9611062   3.2227615
  46.3127327  45.2594566   5.1695168  46.1358500  45.5844212   6.0523206
  47.2672319  45.2674389   5.0981325  17.0771575  45.4431629  41.8875074
  17.6491368  46.1879539  41.7021465  17.6186895  44.6746683  41.7075300
  21.1532259  13.2952797  37.7371025  20.4738641  12.6876771  38.0295348
  20.9113574  13.5093689  36.8360496   2.7591860  22.4338174  48.9014578
   3.1825989  22.6868439  48.0811310   2.1830341  21.7086172  48.6598635
  47.1423578  73.7142372  18.6211109  47.3229980  74.6235514  18.8593221
  47.4220610  73.2069302  19.3831038  66.4727354  68.4875536  56.2216139
  65.6808329  67.9907370  56.0159588  66.2144518  69.0625095  56.9419956
  13.2976460  41.2654018  67.4870586  12.6603651  40.5689859  67.3285866
  12.9413080  42.0253801  67.0269632  28.9807081   8.4459323  54.9951506
  28.0830741   8.4433061  54.6627665  28.9462566   9.0019435  55.7735443
   4.1672149   8.2870537  60.8781910   4.8270690   8.6855572  60.3107262
   3.4939471   8.9608824  60.9725189  85.7446003   8.8130462  26.7232275
  85.7828808   9.7352403  26.9768524  85.1700592   8.7988108  25.9577680
  79.0531301  74.0008354  41.8486881  78.1283379  74.0357208  42.0931673
  79.2512226  73.0659723  41.7936611  33.3725548  75.3738928  46.7944002
  34.2877746  75.2657938  46.5357208  33.2817101  74.8388147  47.5828600
  56.4950991  20.1414680  22.8611493  55.8664370  20.8259416  23.0903053
  56.9980431  20.5113721  22.1355796   4.3679532  42.3369980   4.5561451
   3.6665413  42.5733757   5.1630878   4.9795339  43.0720997   4.5988974
  60.6608725   6.7496723  60.7919979  60.4279709   6.2677360  59.9984455
  60.1155567   6.3618839  61.4764595  32.3123622   3.8623348   5.4600435
  32.7105880   3.3878618   6.1897856  31.4245772   3.5093915   5.4008669
  19.6148884  25.7192111  53.9977074  19.1338801  24.9310327  53.7454462
  18.9583755  26.4156222  53.9824629  80.5673313   3.0776048   3.7142020
  80.2984238   3.5922074   2.9532135  79.7967529   2.5538677   3.9336011
  75.3440762  19.5085907  40.4906368  75.9996605  18.8548851  40.7337523
  75.2403498  19.4035506  39.5448875  76.4110565  74.9950600  33.4927320
  75.6439209  75.4599476  33.8268185  77.1249151  75.2645540  34.0706730
   5.6107116  73.1892920  55.1189184   6.2471390  72.5906181  54.7280455
   6.1339289  73.7629557  55.6787252  55.3466749  78.2990122   4.7901118
  55.6802797  77.4795580   5.1553959  55.9121609  78.9752722   5.1631171
  70.9338903  78.1626654  21.2300062  70.9413624  77.2129250  21.1109471
  70.1589203  78.3307600  21.7660975  46.9492197  31.1251426  58.1754827
  46.3144159  31.4166594  58.8299131  47.7841043  31.1065292  58.6432981
  75.4590607  34.2136240  18.7600112  76.3738823  34.4125986  18.9593649
  74.9878454  34.4188523  19.5675206  55.7231665  59.4422340  57.9127502
  54.9144650  59.1361380  58.3232880  55.5144835  59.4913721  56.9798708
  42.6463652  15.5183125  22.7655768  42.8148127  15.7556069  23.6774707
  43.0640078  16.2128782  22.2562790  22.8106785  21.8619800   5.7566178
  22.3027253  22.6730967   5.7741529  22.8952551  21.6524053   4.8264802
  39.5254660  39.9747562  38.5077715  39.5653915  40.2490711  37.5915909
  40.0598431  40.6177711  38.9738202  27.9887700  19.2331004  55.1998568
  27.8744936  20.0482607  55.6884146  28.7057209  18.7839878  55.6476402
  58.8781404  55.5543137  14.9950588  58.5906744  55.4307222  14.0904486
  59.5786476  54.9128389  15.1135290  47.0427942  26.7340899  45.0438452
  47.0967817  27.6856184  44.9549055  47.5390053  26.3953471  44.2986870
   6.6803604   3.8365403  64.5983410   6.6738337   4.0595055  65.5291843
   5.7876647   4.0155548  64.3029070  18.5636210  15.8760631  26.7919135
  18.8510704  16.7021692  26.4031291  18.2282400  16.1211014  27.6542997
  58.8435745  18.5498953  51.9483566  59.1049385  19.4301891  52.2185469
  59.6359539  18.1709957  51.5678263   3.2006055  79.9086380  63.1044865
   4.0928072  79.7858334  63.4287167   3.2500896  79.6826935  62.1756506
  50.5684328  33.4182644  70.4514027  49.8859262  32.8698587  70.0645399
  50.1479244  33.8253355  71.2088299  -0.0896198  19.3617654  43.6233664
   0.5138887  18.6447716  43.8181210   0.1460068  19.6393991  42.7381325
  34.2845011  10.2931285  40.1495552  34.2536926   9.9485499  39.2570591
  33.4733105   9.9848139  40.5534697  23.5387564  29.3634033  54.3521547
  22.8997660  28.7244344  54.0364981  24.1933966  29.4117022  53.6554909
  61.3906479  14.4229281  17.8860128  60.7733488  14.6894813  18.5672772
  61.5691519  13.5010779  18.0719209  84.0855408  17.1442819  37.7951980
  84.7715950  16.9222164  37.1657109  84.3011570  16.6326046  38.5748959
  30.1264429  11.7894435  23.1765819  29.8345423  12.6504934  22.8772211
  30.5523062  11.9596601  24.0167594  84.6943283  27.9841733  67.9201937
  83.8517570  28.0586791  67.4721432  84.4882488  28.1294560  68.8435841
  32.7665520   4.3763998   2.8251952  32.3276520   4.5775270   3.6517224
  33.0264354   3.4589806   2.9090643  68.1945753  56.9466448   2.3836112
  68.1294394  55.9992981   2.2631012  67.6328516  57.1315241   3.1362838
  21.0325313  11.9078314  42.5499582  21.6754842  11.2564468  42.8302097
  20.9992790  11.8172383  41.5976334  60.2566004  68.0456018  46.4613962
  60.1077938  68.9895201  46.4056873  60.9993792  67.8854609  45.8792734
  38.8769865  54.0648317   5.3681499  38.9635491  54.9408627   4.9922433
  38.1503272  54.1403151   5.9866148  77.9784584  81.3857174  30.9088778
  78.5540771  81.9571209  30.4005504  78.3790541  81.3537979  31.7776322
  52.9009157  53.5197030  -0.0171335  52.3616248  54.1061495   0.5134146
  53.7968713  53.6893986   0.2738945  11.0269392  30.0464964  41.9139719
  11.6408229  30.0106716  41.1804247  11.5829575  30.0255704  42.6928425
  33.4464073  40.2700281  48.9050007  32.6815033  39.7771430  48.6079788
  33.5198212  40.0601816  49.8360252  35.3040695  38.5552478   2.0583194
  36.0255098  38.6834478   2.6742077  35.3696990  39.2955542   1.4551003
  44.4338179  79.9099493  49.0422726  44.4089270  80.7830143  49.4338846
  44.5366049  80.0710011  48.1043339  11.2102687   3.6261949  58.6841393
  10.9292078   4.0219322  59.5091391  12.0048881   4.1045412  58.4475040
  29.4240189  59.2474461  40.7137966  30.3138709  59.5280552  40.9274530
  29.3022871  59.5109558  39.8016715  79.3806028  49.9319220  66.8337917
  79.5166588  50.4868603  66.0658312  79.6874571  50.4617596  67.5695562
   8.7941152  74.1319323  62.9401064   8.4982711  74.2688608  62.0401335
   8.6794287  73.1934834  63.0897665  60.7914639  25.7458949  60.7286549
  61.0987043  26.6330957  60.5423450  59.8430634  25.8355403  60.8220768
  10.3466916  21.3696551  64.8863983   9.7510105  21.2842202  65.6307745
   9.8769820  20.9665346  64.1562605   4.2138305  72.9312325  25.1138306
   3.8496578  72.1601582  25.5486369   4.9825028  73.1601381  25.6363010
  14.1381991  44.8187494  38.5942817  13.3604372  44.6978807  38.0495691
  14.7506344  44.1493416  38.2892418  54.9404526  15.7035887  54.1720057
  55.5285883  14.9770725  53.9658356  55.5005455  16.4794385  54.1477585
   5.4125625  26.6509056  31.7178750   4.9390733  27.2366452  32.3085928
   5.0645465  25.7809281  31.9134641  19.9168396  77.0549774  55.6512260
  19.1935349  76.4321184  55.5797625  19.6029878  77.7168274  56.2674093
  31.6648841  38.6623716  53.2646370  30.9886384  39.3318129  53.1608486
  31.8086100  38.6115980  54.2096186  52.6422262  16.5183079  43.1665087
  53.4230471  15.9901333  43.0004406  52.9788733  17.4002433  43.3249092
  85.8409119   1.8334508  61.1365604  85.9904194   1.0067409  60.6778383
  86.1405087   2.5049803  60.5237675  35.5807686   8.0177724  28.7618208
  36.3672113   7.8528726  28.2416797  35.4683328   7.2236878  29.2843342
   9.3018007  13.4023356  58.6493254   8.5924149  13.7911582  59.1610098
   9.5445991  14.0824616  58.0210638  77.1228743  50.9764194  57.4353218
  77.0190144  50.7525492  56.5104818  77.8650427  50.4474497  57.7279139
   3.8492414  58.2369947  57.7983284   3.0938503  58.8183403  57.8858137
   4.5831412  58.8237333  57.6156855  20.8141208   7.4309963  31.0569501
  21.1907339   8.2581300  31.3573599  20.4737306   7.0201707  31.8516755
  25.5006528  25.5443597  65.6126642  26.1750793  25.7703900  64.9721241
  24.9544930  24.8967957  65.1670170  40.7048559  13.0595827  33.3532572
  40.2590227  12.4388075  33.9295435  40.0167894  13.3834004  32.7719355
  83.7888145   0.9740753  48.5866833  83.0616665   1.5795591  48.7311888
  84.4832611   1.5180868  48.2151699  68.0821371  36.6306639  11.6702628
  68.9309072  37.0650792  11.5859675  67.6126575  37.1472788  12.3251915
  69.7795916  65.7189417  10.7880282  70.0286484  66.3848448  10.1471078
  70.2440786  64.9305487  10.5071068  50.4785156  81.3470936   0.7488822
  51.0711479  80.9260273   1.3715538  51.0324097  81.5608025  -0.0019620
  43.1729841  18.1204295  63.4508181  43.7503242  18.7319982  63.9078665
  42.4475574  17.9762805  64.0584421  48.2388401  13.4067941  50.5861568
  48.2712364  14.3599617  50.6677341  47.3163939  13.2117558  50.4209757
  18.0240905   0.9209349  68.9650774  17.9614735   1.2068184  68.0537128
  18.9241672   1.1251272  69.2188454  28.6178446  12.0951962  55.7369471
  28.9240813  12.1325564  54.8308229  27.9683685  11.3920653  55.7414675
  35.3378010  31.8835163  49.8982477  35.2874136  30.9278989  49.8761034
  36.2757611  32.0742011  49.8881340  76.6300869   6.7090195  37.9519916
  76.8371916   5.7820821  38.0708480  77.4793530   7.1283567  37.8136325
  66.7685175  63.5172129  19.1469705  67.1894360  63.0602360  19.8751402
  67.4852324  63.9686251  18.7011230  81.6632080  77.1267128  42.6020002
  80.9285927  77.5770807  43.0188084  82.4317932  77.6390982  42.8529406
  30.4628205  21.4852738  55.5127764  30.1588058  21.8304181  56.3522291
  31.2853050  21.0416198  55.7199526  84.6446991  48.1179142  27.6856017
  84.6871376  48.6066532  26.8636727  84.6990204  48.7887526  28.3662319
  21.3947606  38.2974982  69.8178911  21.5693879  38.9825320  70.4632330
  20.8171296  38.7131476  69.1777277  22.8923368  12.0826733   4.2247471
  23.7748456  12.4497783   4.1733021  22.9648018  11.3734782   4.8635146
  22.0846200   1.4282243   4.6981239  22.4367738   1.4034356   5.5878460
  22.2237134   2.3305416   4.4105330  47.6022196   3.9376354  34.3038321
  47.9226398   4.2860761  35.1357889  48.1819153   3.1999868  34.1139436
  57.3837709  43.9574337  59.7382069  57.6815748  43.1243706  59.3727636
  57.7905321  44.6219635  59.1821718  43.7350321  31.1790133  57.7907944
  44.4659758  30.7703495  57.3271704  43.5883951  30.6156826  58.5506582
  60.2341795   2.7168551  62.6213360  60.2595663   3.6702943  62.7022076
  59.3019819   2.5055405  62.5704193  37.1695900  36.8515015  49.6284485
  37.3288989  37.6801777  50.0802803  36.6493249  36.3379478  50.2463675
  86.3400078  74.2953873  20.0736570  86.4454365  74.5682192  20.9850740
  85.3965855  74.1728878  19.9679172  85.3044891  76.3454437  24.8233700
  84.7812462  76.8034410  25.4811573  86.0325623  75.9678507  25.3168964
  32.6506424   4.3086821  19.7222281  32.7328491   5.2615279  19.6827507
  33.2784986   4.0417221  20.3936148  37.2483635  36.7727852  53.6345625
  37.8777075  36.4462996  54.2776537  37.4002433  36.2358451  52.8568363
  41.1637354  15.3394377  63.2645464  40.6730604  16.0275316  63.7139893
  41.7149925  15.8084834  62.6381731  39.1828156  44.1994905  16.7645991
  38.9757252  43.3095169  16.4794827  39.3498325  44.6783113  15.9527683
  62.3102188  37.7905345   9.3003768  62.8883266  37.2349310   9.8231828
  62.7674007  38.6298823   9.2483139  80.1943207   2.7567700  17.2952437
  80.9507465   2.7905169  16.7096519  79.7194147   1.9698492  17.0279443
  54.5620441  44.8553276  50.5691433  54.9459410  44.2415857  51.1953831
  54.4716644  44.3487692  49.7620106  42.4217606  49.0236044  67.9775238
  42.8192902  48.3983326  68.5835266  41.9806290  48.4784222  67.3260593
  18.6183643  25.2278376  38.8898301  18.6651397  24.5865679  38.1807327
  19.4066167  25.7603717  38.7835431  43.1965971   6.9820219  52.3506451
  42.9560709   7.1699482  53.2578754  42.8514385   7.7232015  51.8528986
  69.7957087  25.0588942   0.5115009  70.1935244  24.2367959   0.2249236
  70.3710365  25.3730154   1.2090364  45.6533241  23.4354734  64.8804331
  46.1102581  24.0244150  64.2799377  46.1540985  23.4877110  65.6945133
   9.5140958  37.6201773  36.8046927   9.0801591  36.7884183  36.6146755
   9.0818352  37.9404569  37.5964022  57.4783325  34.5335603  61.3601398
  58.1707382  33.8726759  61.3664198  57.6671696  35.0709987  60.5909014
  52.6641035  19.5418489  52.3731661  52.9705238  20.1978612  51.7470789
  51.9755650  19.9861419  52.8678894  18.2094920  20.0667477  48.6195660
  19.0017474  20.0030637  49.1529608  18.5009885  19.8585200  47.7319288
   9.0470833   6.3236129  37.4330044   9.2531002   6.4887834  38.3530617
   8.2989687   6.8917882  37.2493386  27.4762654  25.6641507  63.7044954
  27.5335312  25.2519941  62.8424740  28.2182527  26.2682962  63.7308836
  10.9152234  41.4094782  42.9639912  11.2729001  42.2957325  43.0173874
  11.6641879  40.8382654  43.1342888  85.5620480  29.6270061  42.2407293
  85.3593445  28.7913585  42.6612473  85.5807972  29.4259644  41.3050699
  57.1639633  23.0476213  65.1330900  56.9838715  23.9354420  65.4422426
  57.7280235  23.1697226  64.3694448  58.8537216  69.3866301  15.3322387
  59.7654629  69.2695522  15.0653017  58.8640594  69.2616987  16.2811947
  29.8336768  36.5587831  53.1262255  30.4937816  37.2383165  52.9893637
  29.0916061  36.8338132  52.5877810  20.3300071  20.2162051  50.3343391
  19.6853352  20.7143545  50.8368111  20.6981373  19.5968032  50.9644604
  49.1869688  31.0248780  59.9124575  49.4490528  31.7719388  60.4504538
  49.0312815  30.3199577  60.5410099  36.1224508  36.3917398  60.3712797
  36.2109017  36.7671061  59.4952059  36.2295842  37.1365428  60.9629107
  27.9388428  38.6985898  51.9036055  26.9845915  38.7270999  51.8341446
  28.1952524  39.6082926  52.0550156  33.5366583   3.3192959  35.5240154
  32.7357030   3.8082349  35.3352237  34.1535139   3.9813843  35.8360410
  54.8907804  67.7285433  29.6095371  54.9463749  66.9072628  29.1210341
  55.7937670  68.0431652  29.6526647  37.8165150  63.8971710  55.2276087
  38.6520576  63.8566589  54.7623587  37.9823327  63.4493256  56.0571718
  81.5851688  74.5585442   6.3537025  82.1454144  73.7826014   6.3703930
  81.5919876  74.8392439   5.4386109  63.2125235  67.3811197  17.4602342
  63.6925030  66.5551186  17.5200069  62.3249102  67.1247768  17.2099149
  53.2164001  21.5252185  50.5430508  52.3364210  21.8981814  50.5957031
  53.4540892  21.6017962  49.6189976  30.3997445  32.8120899  36.7697811
  31.0682535  33.4501767  36.5204358  29.8525286  32.7212667  35.9896946
  76.1295080  70.6865120  49.9024916  76.0494280  69.7359610  49.8232889
  76.5363693  70.8221197  50.7582378  84.7537422   9.0528530  14.5940018
  84.9130344   9.2859429  15.5086207  84.0711880   9.6597272  14.3075538
  35.2365828  23.2123733  65.1149702  36.0094237  22.8360629  64.6938515
  35.1811743  22.7636576  65.9586620  11.1111093   2.2010002  63.5003090
  11.9224405   1.7451628  63.7243271  10.4273129   1.7116527  63.9576864
  25.9704351  36.7639303  45.1130247  26.5281248  37.2413278  45.7272768
  26.1765957  35.8422852  45.2689171  37.0203805  19.3456137  25.6094074
  36.4203858  18.6472583  25.3476143  37.8184271  19.1758978  25.1088548
  28.3154774  15.9491920  54.3497944  27.4815869  15.7976961  54.7946596
  28.3548808  15.2695882  53.6768770  18.3144093  29.8295355  70.2486563
  17.8110540  30.0122237  71.0420609  17.6689172  29.8623967  69.5426178
  62.2132158  34.8956871  59.9340343  62.8514481  34.6574593  60.6064463
  61.3639784  34.6992373  60.3295517  29.3714952  29.3129396  64.2112207
  28.7936115  29.5013833  64.9506569  30.1697469  29.8065853  64.3992186
  85.7563821  55.1184177   2.5951153  85.6548530  56.0356379   2.8493494
  86.7031397  54.9883699   2.5406262  26.8081999   3.6305800  17.5699091
  25.9536648   4.0591994  17.6177585  26.8519831   3.0945933  18.3617628
  25.2843380  18.7098241  57.8514767  26.0519290  19.0159965  58.3344793
  24.7456765  18.2718790  58.5104752  80.9006882  56.5142679  13.3995426
  80.2507877  56.9751787  12.8690445  81.7288685  56.6573000  12.9413986
  54.6050644  47.8293419  50.8704567  54.2891598  46.9528580  50.6508780
  55.0519419  48.1282425  50.0785065  50.2586460  76.3163137  17.1598542
  50.7600451  77.0666647  16.8407834  49.8801279  75.9282494  16.3709569
  80.4808331  53.4108925   3.3815157  80.2781868  53.6447287   2.4757081
  79.6937084  52.9660940   3.6958802  44.0703487  33.3897233  44.2366886
  44.0188599  34.3382621  44.3544054  44.0603876  33.2652593  43.2876682
   1.1846396  19.9495566  61.5609074   2.0359126  20.1742983  61.9364834
   1.2292875  19.0046394  61.4147234  47.5589418  26.5221167  60.5960989
  47.8804493  27.1488762  59.9479961  48.2300377  25.8401179  60.6232166
  86.2399864  67.9912853  48.3858347  85.4355907  68.4862232  48.5414171
  85.9662342  67.2551584  47.8386497  22.2586131   9.3666857  59.5314169
  21.7057419   8.9650345  60.2016735  22.0762229  10.3038061  59.6004915
  27.9776788  21.9170952  49.1519976  28.4041500  22.5319672  49.7488976
  27.0962381  21.8088579  49.5091820  53.2672882  28.5782099  54.3359566
  52.9766750  28.4024715  55.2308798  53.4568787  27.7136254  53.9715624
  28.8832140  34.1026330  53.9576054  29.4554281  34.8142242  53.6704779
  28.0037928  34.3873072  53.7089825  21.8382215  23.6310744   8.9540029
  21.4849257  22.8791022   9.4293475  21.5917158  24.3878770   9.4857121
  43.8700008  21.3430452  61.1891413  44.4943047  21.5742254  61.8769169
  44.1735744  20.4949880  60.8653021  49.4203758   7.8316283   5.6518519
  49.6141768   7.0044208   5.2109456  48.4687567   7.9168731   5.5936027
  83.0243397  22.6122236  66.6866970  82.7467537  22.2377563  65.8506632
  82.5982666  22.0658374  67.3471212  20.1333332  20.0433302  39.3373609
  20.6201959  19.2307270  39.1999912  20.7974243  20.7311440  39.2912436
  35.9717059  37.6665878  46.5939474  36.1237168  37.7271199  47.5370598
  35.0186801  37.6601386  46.5048790  50.6809950  55.7824278  65.3353119
  50.3297997  55.8949852  64.4520092  50.6655169  54.8364210  65.4804659
  67.9162884  61.6340876  21.2263227  68.8201046  61.9171333  21.3650274
  67.5375843  61.6028595  22.1048641   3.6117184  35.5617285  12.7468538
   3.2109475  35.0732446  12.0278275   4.1039917  36.2607479  12.3164260
  34.2853141  35.8414650  63.8608789  34.4891691  36.2975097  64.6773958
  33.3577490  36.0234141  63.7100554  45.0949049  28.1258655  50.0832844
  44.9556446  29.0494943  50.2924490  44.6695662  27.6517153  50.7977819
  16.7260969  44.9621725  68.4914970  16.6582191  45.8379173  68.1111097
  16.6239750  45.1014090  69.4329929  38.4122014  26.8032551  67.3827696
  38.5455322  26.0360336  66.8261480  37.9203200  27.4144483  66.8343782
  48.7240696  37.2286391  47.8732443  48.7309027  38.1087542  47.4969673
  49.6165705  36.9068861  47.7461529  15.1478851  38.1468272  53.8104200
  14.7644186  38.3458495  54.6645737  15.4760742  37.2519112  53.8978720
  74.7532415  77.6179600   7.4492103  74.2396355  76.8594170   7.1716297
  74.7566414  77.5680971   8.4051049  81.7757893  73.1703663  50.5963755
  81.3090134  73.9671326  50.3443432  81.1813450  72.4589872  50.3580475
  18.7320769   7.8994381   4.2860371  19.2139184   8.2274342   5.0452989
  18.3433652   8.6809623   3.8931558  48.1006956  20.2812743  43.3124542
  47.7071857  20.9966755  42.8128672  47.7860689  19.4866824  42.8813267
  85.1026440  52.7243185   4.9283913  84.7965813  52.3453093   4.1044310
  85.2824688  53.6407042   4.7183111  45.6473351  23.6389470  43.6222219
  46.4200544  23.7741780  44.1707182  45.8810425  22.9030919  43.0564213
  35.5699229   0.4406191  52.3886395  35.0639653   0.6119275  51.5943527
  35.1044607   0.9165654  53.0764294  32.4591613  32.2275066  33.7956333
  32.9611659  32.4105716  34.5898080  31.5469718  32.2187757  34.0855718
  56.6404104  43.5734272  68.4848404  56.3811159  43.3156109  69.3694496
  57.5637722  43.3283949  68.4249163  23.5165519  29.4648029  70.2890139
  22.6739997  29.9184610  70.3120045  23.3883494  28.6933614  70.8409858
  45.3488445  30.2699518  65.6729650  45.8493519  31.0228443  65.9874105
  44.9591064  30.5678248  64.8510075  64.9174690   1.1950950  32.7706528
  64.5891190   0.4115746  32.3296165  64.1302156   1.6449457  33.0774021
  18.7241185  23.4534311  52.1817303  17.8224897  23.1432104  52.0976877
  18.8586557  24.0093613  51.4142179  21.1314297   5.7436836  20.7548928
  21.5703321   5.0554031  20.2550268  21.4227819   5.6077784  21.6564894
  28.8568830  37.3392463  65.1886129  29.7597790  37.1443653  65.4396725
  28.5160398  37.8669405  65.9108257  22.1597481  47.5877428  41.0511255
  22.4872804  47.2631598  40.2123117  21.9621778  48.5104132  40.8902645
  43.6211920  35.9749722  39.0999055  43.0537987  36.7425299  39.0281367
  43.4823275  35.6570506  39.9920225  10.3516340  57.0977259  37.7235961
   9.5190179  56.8382978  38.1181574  10.9150386  56.3308716  37.8272462
  29.6772027  26.4175439  61.4138460  30.5774069  26.2627029  61.1276865
  29.5471835  27.3586178  61.2967777  48.7811470  41.2579536  61.2944937
  48.3385563  41.9577360  61.7747498  48.0702686  40.7381868  60.9193563
  34.4325876  66.2919664  66.1530638  35.2131629  65.7788754  66.3620424
  34.5449042  66.5354061  65.2341795  23.7523913  33.5076213  64.6318913
  23.1275201  34.2291474  64.5599985  23.9816427  33.2982016  63.7264490
  41.1155796  32.6074886  48.4596586  41.7929506  32.7075768  47.7907896
  40.2936792  32.6008654  47.9690790  28.4969187  15.9653056  50.9854746
  29.3754721  15.5957484  51.0738373  27.9528069  15.2267754  50.7120752
  55.8802462  22.4811363  57.0663071  56.5606737  23.0696392  56.7393255
  55.8539677  21.7676926  56.4286995  45.4625988  22.8487539  47.6772165
  44.8076916  23.5141683  47.8882837  44.9523115  22.0594001  47.4962139
  53.3267403  62.4375725  11.1017311  52.5213957  62.7377224  10.6803524
  53.9230204  63.1836081  11.0375869  44.0679741  30.4713631  70.5519247
  43.7603140  30.7600045  69.6927071  44.6855640  31.1495948  70.8254528
  12.7363741  23.8528109  55.4600382  12.2336030  23.9092708  54.6474695
  13.0219674  24.7508645  55.6278753  12.0898032  11.1547101  50.9023046
  11.4048064  10.4889894  50.8404398  12.2391582  11.2580776  51.8421125
  41.4370489  39.2831540  59.8278141  41.1167002  39.1793442  58.9318037
  41.0230160  38.5703182  60.3143024  64.0902042  54.3743753  58.1539011
  64.3404627  53.6755896  57.5494957  64.0512848  55.1601315  57.6086473
  56.6549397  38.1813431  58.0712080  56.0674381  37.9716849  57.3451805
  57.3168325  38.7553263  57.6856232  38.6918831  60.9605789  50.5145264
  37.9861140  60.3762197  50.2376795  39.1631389  60.4660702  51.1850595
   4.3938741   2.8837401  27.8884768   4.8949385   2.4748103  27.1828270
   3.6717835   3.3274019  27.4435258  62.7067232  69.5743370  49.9042511
  62.6442051  68.6485720  49.6691132  61.8770027  69.7671127  50.3408718
  65.6881142  44.9995184  45.4431725  65.6740379  45.2791977  46.3584948
  64.7926760  44.7106123  45.2672100  59.0589905  38.2809329  63.9218140
  59.0051413  38.9701271  64.5838881  58.1508589  38.1282425  63.6606216
  64.8015451  68.3427429  15.5187476  64.8093557  67.5829792  14.9365759
  64.1160727  68.1477976  16.1577713  60.5028582  59.3356037  63.3186913
  61.4200592  59.0724707  63.2429552  60.0154114  58.5119390  63.3042908
  31.2695074   0.0017836   9.9574471  32.1661377   0.0474822   9.6254843
  31.0269737   0.9136318  10.1185107  62.7235508  14.8295033   0.3904289
  62.7556896  13.9812398  -0.0518920  62.7330303  15.4706931  -0.3202167
   5.7208294  70.4878712  23.5959435   5.2300566  70.7776165  22.8269029
   5.0544548  70.3597736  24.2710495  31.6362953  13.0584776  15.4113317
  32.4019933  12.6463139  15.8114052  32.0007229  13.7061357  14.8080385
  78.0747843  65.1788807  54.3505526  77.1565819  65.0330591  54.1227865
  78.4867382  64.3212795  54.2454386  77.0036650  34.7956085   2.9522544
  76.7657137  35.5644226   2.4340515  76.6877127  34.0528393   2.4377634
  69.6318722  66.2084866  61.2125301  69.4864082  65.3266478  61.5552044
  69.5138788  66.1204004  60.2667236  68.0430222  46.3014841  68.9597511
  67.5908232  45.8981133  68.2187796  67.4229622  46.9490528  69.2950392
  60.6999683  53.5999584  43.3231401  61.2713766  54.3525171  43.1702471
  60.0742340  53.9039993  43.9805937  31.5253019  36.1579967  56.8210888
  31.2685204  35.3490853  57.2637606  32.4261928  36.0007477  56.5384197
  33.7613034  33.0142665  36.1095786  33.5607576  33.1013656  37.0414734
  34.7108793  32.8976917  36.0788107  68.7744045  53.1895828  67.0928335
  69.0413666  54.0475130  66.7628050  69.5319748  52.8768444  67.5873184
  44.9107170  35.6913662  59.8578930  43.9677334  35.8552623  59.8700762
  45.2392197  36.1240172  60.6460142  22.1445131   8.8140070  44.5311022
  21.5735245   9.4282031  44.9925852  21.5873742   8.4325701  43.8526249
  14.1743588   6.8488044   2.7697954  14.7011042   6.6764224   3.5502160
  14.2833948   7.7861643   2.6094833   8.0332536  16.5356636  18.9713943
   8.1411558  17.0900786  18.1985986   8.5880876  16.9421124  19.6371210
  54.4635487  54.9612236   5.3547841  54.5900393  55.7629776   4.8474160
  53.5574532  55.0109529   5.6593347  73.9514112  68.3077240  32.9202223
  73.9137125  69.1621065  33.3501482  74.8262262  68.2726812  32.5333095
  57.9511642  37.4033308  49.6391726  57.4948359  37.9174042  50.3052950
  57.2611427  36.8910885  49.2176151  44.7043657  13.1079292   6.5198064
  44.0336943  12.8156972   7.1370858  45.5333900  12.8958356   6.9487220
  37.7204537   7.3292840  17.0732403  37.4238944   7.0492119  17.9391754
  38.5357571   6.8480575  16.9320595  55.4876184  48.6484909  43.5132027
  56.3401794  48.6250067  43.9477301  55.6954002  48.7280416  42.5822163
  43.4531689  63.3651543  39.5752335  43.7623453  64.0266609  40.1941442
  44.2510748  63.0221558  39.1728258   7.0255381  69.5999765  51.5203667
   6.7192626  68.7090015  51.6894484   7.8418773  69.4843864  51.0340929
  68.8245535  30.2128220  43.4283447  68.3107424  30.9596181  43.1208897
  68.4316874  29.9821091  44.2701626  83.6154652  42.5500822  39.2647791
  84.2534256  43.2566595  39.1648316  82.7736664  42.9565334  39.0588355
  62.1091270  16.8469810  17.0002723  61.3129902  17.2725511  16.6820061
  61.9254398  15.9103763  16.9277191  53.3076000  65.2233028  59.8009920
  53.6185169  65.9109831  60.3897667  52.3588467  65.2107620  59.9272728
  75.8532572  51.2112570  63.9057064  75.7734203  50.3015280  64.1925097
  76.3699436  51.1643219  63.1013012  56.3312674  50.5605650  41.1207771
  56.0568857  51.2527895  40.5193043  57.1968603  50.8352995  41.4232635
   7.6161855  54.0325403   0.6929680   6.6934323  54.2219687   0.5230419
   7.6053685  53.4526491   1.4544424  31.9440007  60.4991293  40.8587503
  32.8908253  60.4158592  40.7455206  31.8365407  61.2667751  41.4203596
  45.2098370  64.1035652  61.9920206  45.7712364  63.5086870  62.4891949
  44.3226337  63.7770939  62.1420717  72.7497959  50.1421118  63.9128017
  72.1247625  49.4210815  63.9882326  72.5789690  50.5178070  63.0491447
  41.3521242   0.7917784  23.4127522  40.5258894   1.1800713  23.7004972
  41.7493629   0.4523033  24.2147446  51.0934401  54.5002127  28.2309771
  50.9412956  55.0283527  29.0146542  51.4835405  53.6903715  28.5599375
  36.6063237  30.0019026   3.3376691  35.7389307  30.2916312   3.6203685
  37.0433640  29.7311854   4.1450968  69.8197937  65.0516796  58.7827444
  69.1638517  65.2828217  58.1250620  69.7233868  64.1060019  58.8951206
  42.9792786  45.2544832  13.4020627  42.2758818  45.1173878  12.7674961
  43.2072401  44.3741465  13.7008536  73.5503244  56.6789055   8.5875976
  73.9851665  55.8800030   8.2894480  73.5884047  57.2678518   7.8339869
  78.5700035  59.6179914  45.5580521  77.6278925  59.4592094  45.6167412
  78.8126326  59.9427795  46.4251566  47.5412464  75.2198219  47.7329874
  47.2202492  74.6165705  48.4032726  46.7652416  75.7090092  47.4595881
  85.0117493  59.8648119  36.8054795  85.7481194  59.2556715  36.7512655
  84.4926643  59.5478916  37.5446367  81.7724705  37.3191738  42.8587198
  80.9079933  37.1201491  43.2183170  82.0871449  36.4831018  42.5149250
  38.6830187  34.1208863  64.9410486  37.9447675  34.3238521  64.3665695
  38.7925792  34.9064541  65.4768753  43.3215618  50.1619530  25.3465557
  43.5674191  49.8575783  26.2201357  44.0961075  50.6251001  25.0274968
  28.1286049   3.3986264   7.9658389  27.5664854   4.0718210   7.5823504
  28.9380574   3.4440845   7.4569666   2.6899838  64.9075842  62.1224689
   1.8111388  65.0701666  61.7797852   3.1888953  65.6884193  61.8824339
   8.3874905   3.2414448  27.8194404   8.2810694   2.9502016  28.7250257
   7.8929454   4.0595752  27.7712774  49.6610975  68.0169392  62.7206516
  49.9377918  68.7536621  63.2655478  49.3161869  67.3757124  63.3420181
  59.3112469  58.9522076  47.7861214  58.8169146  58.1438875  47.6501465
  59.3395472  59.3638182  46.9224024  56.8506813   4.3401667  25.6031322
  55.9456635   4.1958699  25.8794594  57.3718500   4.1574192  26.3849401
  16.6272569  47.8001881  57.1723175  16.0637867  47.1447420  57.5835657
  16.1589491  48.0534554  56.3768482  51.4553595  76.5476036  43.4908676
  50.5046320  76.4448404  43.4484911  51.7432404  76.4909124  42.5797462
  50.0860500  40.2299404  63.7225533  49.9521255  40.9945059  63.1624269
  50.6691408  40.5398798  64.4155025  35.0078869  23.2436657   1.5909530
  34.4790125  22.5170350   1.2615138  34.5506263  24.0286803   1.2894605
  70.7234478  41.5456676  65.9820223  71.4290094  42.1212101  65.6867838
  71.0645008  40.6611776  65.8493710  71.4489079  70.6871176  63.6437941
  72.1735239  70.1326513  63.9331532  71.8647766  71.5101957  63.3872318
  30.8276176  24.2337966  57.9575968  31.0726690  23.7525010  58.7478685
  31.5214014  24.0323210  57.3296595  54.1845655  56.2388229  61.4087248
  55.0937414  56.4768028  61.5903616  53.6795425  56.6870213  62.0871830
  73.8375998  41.1999369  68.4875154  73.3864498  42.0344877  68.6148787
  73.6599445  40.9683132  67.5759125  59.9905777  44.1660547  54.1843891
  59.4657183  43.4431267  53.8406849  59.3651533  44.8809290  54.3028498
  45.2704716  59.1718388   1.3187286  45.8609915  59.1918612   2.0718025
  44.9921083  60.0810003   1.2084035  62.7544117  65.7468891  44.3612146
  61.9675064  66.2269831  44.1032839  63.4518337  66.4022303  44.3421459
  48.0818081  64.3635035  54.1262722  48.7314606  65.0534439  53.9914894
  48.5877180  63.5511398  54.1072989  12.2603941  39.1086626  30.2415729
  11.8507266  38.9377213  31.0896206  12.0698273  40.0299072  30.0648713
  58.2900810  18.7967634  36.6753149  59.1746426  18.6080170  36.3620162
  58.4228659  19.2909408  37.4842596  52.3410702  61.1995173  23.6429691
  51.5493298  61.7305565  23.7288857  52.0270395  60.2956295  23.6675024
  50.3249502  79.6885490  49.9550629  50.0879192  79.7416592  49.0291977
  49.4951391  79.5332861  50.4062176  51.5863657  46.8054819  59.1890526
  52.4966478  46.7428875  59.4783688  51.1292124  47.2150040  59.9235868
  71.7277670  56.5688896  39.9731946  72.5872660  56.2005520  40.1777077
  71.9193029  57.3502922  39.4545841  37.2919512  36.1820602   4.1362816
  37.2406530  37.1296644   4.0111935  37.8039575  35.8693838   3.3904153
  72.8656816  57.1158886  33.8804317  73.3565855  57.8592300  33.5301590
  72.5161648  57.4310589  34.7139406  46.3859653  71.6053820  48.4579706
  45.7512903  71.9963551  47.8574991  47.1618557  71.4509153  47.9191113
  29.5992589  30.7436824   5.7481486  30.3344917  30.9786868   5.1820743
  28.8661146  30.6131625   5.1467377  51.3963985  35.9422660  47.6233149
  52.2622490  35.7798195  47.2489500  50.7849979  35.6133366  46.9643545
  78.4332275  49.1852903  18.1554389  78.8354969  48.8655710  18.9630234
  78.3983088  50.1355410  18.2651472  71.2829638  64.4224024  50.3590488
  71.7887354  64.8939180  49.6971560  71.2682009  65.0112104  51.1135817
  79.2391253  60.1655579  48.0971289  78.7864113  60.6430626  48.7923050
  80.1534081  60.4378510  48.1757069  62.0152903  79.6934843  66.4461994
  61.5403557  80.4645824  66.7561483  62.1297359  79.1525793  67.2275782
  32.1149972  67.3792432   0.5084650  31.2701526  67.1582483   0.1165049
  32.6948890  67.5253580  -0.2389391  42.5445604  56.8550634  50.0243282
  42.3113203  55.9819555  49.7088623  41.8741083  57.4300480  49.6553898
  69.8150969  49.1678047  54.4916201  69.2216730  49.5075703  53.8218117
  70.6275415  48.9830875  54.0204000  74.5469141  31.4489722  18.5496664
  74.6570873  32.3997855  18.5564113  74.8787308  31.1633635  19.4008756
   4.9743125  43.7633514  50.6383276   4.0734938  43.5118484  50.4346037
   5.4332870  42.9322577  50.7602072  59.8751879  61.2277365  64.9271154
  60.1621723  60.4248047  64.4921780  58.9614773  61.3307619  64.6611357
  38.4132814  41.2358379   8.4114504  38.1389332  41.0725927   9.3138450
  39.3403077  40.9978914   8.3961821   1.8239552   2.4360834  46.4416075
   2.5023270   1.7743161  46.5761757   2.0905124   2.8936219  45.6442165
  10.8041990  26.9032073  59.7094488   9.9971461  27.1902084  59.2822170
  10.5373764  26.6824698  60.6018162  32.7040243  12.4577010  20.4354000
  31.9082642  12.8288460  20.8165169  32.6346278  11.5180326  20.6040335
  17.8169155  12.5545657  39.9609542  18.0443478  13.3821094  40.3848362
  17.6913810  11.9411683  40.6849813  82.5834179  61.6147947  18.8313007
  82.8677464  62.0101547  18.0072391  81.6530132  61.8312597  18.8923442
  71.5972662  55.9395885   0.5998516  71.3859367  55.2756310  -0.0564505
  72.3390198  56.4166212   0.2277324  56.6697311  72.1519423  44.5104933
  56.5302515  72.4487352  45.4097652  56.6210938  71.1974239  44.5630360
  65.5601311   6.2862819  57.8570318  65.2341604   6.4522558  56.9724798
  64.8963976   6.6668618  58.4322214  28.1774640  76.5461397  47.8815079
  27.8498888  76.0242939  48.6140394  28.3560729  77.4064350  48.2612753
  72.2010136   2.4337970  46.3830233  71.4990234   3.0782890  46.4728498
  72.9861069   2.8912592  46.6840029  62.9036522  70.3614664  38.6949062
  61.9681740  70.1895523  38.5873938  63.2975912  69.4939423  38.7868118
  54.9308109  51.8593454  36.3802624  55.5782413  51.9551516  37.0787501
  55.4412889  51.9089508  35.5720663  55.8881283  73.6059332  56.2379313
  54.9917698  73.9363861  56.2976694  56.0328150  73.1543016  57.0693922
  25.6980872   8.3053321  17.7023768  25.0044394   7.6847321  17.9258454
  26.4292049   8.0620712  18.2702887   7.2717285   3.2588366  48.9591742
   8.1735557   2.9502651  49.0470552   7.0679164   3.6483186  49.8094654
  75.4250193  42.4653435  62.8140831  75.2803183  42.3509264  63.7533379
  76.2132263  41.9546747  62.6292133  73.3509874  62.8094864  50.9820366
  73.5233784  62.3194742  50.1780462  72.4438334  63.1020784  50.8943558
  85.4513168  69.3660879  52.6807022  84.5883274  69.4946098  52.2870493
  85.3401184  68.6130190  53.2610083  63.2519484  22.8977680   5.3755200
  62.6962852  22.5428843   6.0694408  62.9787731  22.4292564   4.5867833
  29.6491307   7.3244240  70.4265658  29.6978778   8.2798387  70.3944505
  29.0056151   7.1402933  71.1108290  32.4526811  49.4722986  68.5941744
  32.2776175  50.3922892  68.7921715  33.3307505  49.3154383  68.9414787
  20.5989575  13.6410642  11.7805099  20.4808211  14.5737696  11.6006863
  21.3611722  13.6031973  12.3582864  58.7181425  67.1165323   4.6542659
  59.6172523  67.3496485   4.4229981  58.8021660  66.3040018   5.1532286
   5.2987140   9.8313504  50.1798344   4.8091462  10.2713120  49.4848585
   4.6309742   9.5666009  50.8124971  32.9523945  73.0614138  34.8240304
  32.5104713  73.0629683  35.6731081  33.8417912  72.7651262  35.0174665
  41.8647242  66.5489578  65.0709295  41.5151834  67.4300003  65.2044249
  42.5240517  66.6542482  64.3850470  45.3842688  29.5105672  26.9894409
  45.5775023  30.2530646  26.4170837  44.6182728  29.7883558  27.4917531
   9.5226341   5.1213813  34.9849534   9.7595137   5.7031995  35.7071781
  10.0672019   4.3449059  35.1144290  50.3797245  38.4038901  67.9988003
  50.6549883  38.2283306  68.8986015  50.8201742  37.7321625  67.4782085
  86.1343765  57.4711704  13.5729349  86.5216637  57.4020338  12.7003217
  86.0783958  56.5671206  13.8824451  17.3479998  73.5398579   3.1862503
  17.3842275  74.1852999   2.4803324  18.0506074  72.9225159   2.9826215
  49.3517494  61.5573120  22.6686430  48.7452412  61.6434431  21.9331408
  49.6358681  60.6437302  22.6390791  33.1288314   8.8991874  50.7976294
  33.2887650   8.1033462  51.3048697  33.9418674   9.3987060  50.8730268
  53.3973026  46.5399551  63.2336521  53.8322067  46.5742540  64.0856552
  52.4980450  46.2803125  63.4340429  53.0065584  70.6322336  63.7631607
  53.4607935  69.7955465  63.6638546  52.0851231  70.3939009  63.8650894
  33.1260657  78.2612276  45.5439806  32.9347730  77.3253155  45.4830980
  32.2922063  78.6604881  45.7919693  53.8245440  72.5460958  62.1989059
  53.0974722  72.3337221  61.6136742  53.7145090  71.9534016  62.9424381
  23.4193444  61.3013363  45.4295874  23.6810780  60.9232378  44.5900822
  22.4640226  61.3426924  45.3862095  70.8007526  50.1517725  41.2873411
  71.0595369  51.0657740  41.4050674  69.8449707  50.1773977  41.2419653
  47.6931047  47.8449821  61.9810057  46.9949293  48.3435011  61.5564299
  47.3466492  47.6393843  62.8492928  39.0270329  35.6749916  14.9781442
  38.5025644  35.0135493  14.5268548  39.9160433  35.3202200  14.9729669
  25.3762007  16.0159743   6.5308583  25.3019071  15.1737976   6.9796914
  25.3213048  16.6662431   7.2311217  52.9017448  24.8827577  26.0495377
  52.3088408  24.6991897  25.3208399  53.7013578  25.2038145  25.6326771
  19.1553998   0.6740019  50.3592539  18.6207676   1.3735972  50.7347059
  19.0984130   0.8102991  49.4135189  10.1638317  12.5864923  52.4750757
   9.9814719  11.6951799  52.1775198  10.6174302  12.9967225  51.7387390
  47.2918510  66.0295391  39.3630576  46.7582417  66.7704058  39.6504760
  47.3554373  65.4665756  40.1345873  23.8918710  41.8965101   4.4298038
  23.8918424  42.5657320   3.7454247  24.5894146  41.2928104   4.1744369
  58.6190367  29.2183805   4.5486709  59.3109703  28.5795832   4.3772182
  57.8660107  28.8942122   4.0546089  53.0286694  56.5522814  64.1447306
  53.2059145  55.6217480  64.0071583  52.1640348  56.5733242  64.5548487
  82.8224087  50.2039385  19.1150904  82.5544834  49.9268770  18.2389140
  82.5304413  51.1133194  19.1784692  21.1364269  18.7740374  29.9978757
  20.5284691  18.6400259  30.7249665  21.3817191  17.8900373  29.7247338
  17.2931468  29.9167919   4.0240067  17.1133769  29.3250823   4.7546181
  16.4685762  30.3824520   3.8844559  58.3234406  65.3700018  43.9352322
  57.4655533  65.2151775  43.5398960  58.1342840  65.5449772  44.8570967
  23.1076884  52.2940159  26.1305642  23.9023209  51.8705320  25.8058286
  22.4977612  52.2558403  25.3938389  23.8536263   6.6744280   0.6249681
  24.4076562   6.1744249   1.2243682  23.5548282   7.4222052   1.1424422
  54.6608496   8.7405461  44.3806696  55.1598692   8.6454672  45.1919508
  55.3052568   8.6055291  43.6858797  76.0341549  51.6984653  46.4415836
  76.6354752  51.5213394  47.1649599  75.8048916  50.8328915  46.1032820
  42.0513773  61.6229057  45.4913092  41.2787056  61.3840008  44.9793148
  42.6088190  60.8453751  45.4606390  52.7891302  61.6277742  61.0157251
  52.0601606  61.8836403  60.4506016  53.5660839  61.7322445  60.4664898
  80.5189705   8.2756829  53.4670591  80.8333969   7.3802865  53.3420420
  80.2674484   8.5658222  52.5902510  33.6733460  36.1576939  12.5994098
  34.0774131  35.8360291  11.7934978  34.3863368  36.5913248  13.0682850
  73.1053019  42.2448206  35.1390004  73.8671923  42.0167017  35.6716466
  72.3797321  41.7682695  35.5423379  78.7576771  59.1271162   0.0548625
  79.6270323  59.5273781   0.0392363  78.7548447  58.5914660   0.8481475
  62.6360893  58.0245543  52.9781771  62.4958897  57.6866913  52.0936298
  63.3231544  58.6832762  52.8768539   4.7671148   3.1343460   5.5840433
   5.0676936   2.7589500   6.4116675   5.3124714   2.7147466   4.9186453
  72.0979786   4.6276358  14.3947816  71.9897747   5.0862193  13.5615802
  73.0382776   4.6670157  14.5695007  61.8534756  43.9669943  49.7682142
  61.0900879  44.4733763  50.0458002  62.5922680  44.3860817  50.2095556
  40.3699207  58.0237675  49.2607260  40.6484175  58.4985590  48.4776306
  39.5577478  57.5888681  49.0009737  59.4382572  60.0421524  45.3299427
  59.1416740  60.3654289  44.4791985  59.5553112  60.8315086  45.8585691
  81.8416023  63.5145712  41.6261339  82.1824932  64.0349197  42.3536348
  81.3908482  62.7820206  42.0461702  42.4985409  31.9080639  14.9570942
  42.4162865  31.2462211  15.6437027  42.8327370  31.4273310  14.1998351
  45.7156944  77.6931763  52.8898478  45.3452682  77.7167892  53.7721491
  45.0691843  78.1437826  52.3465157  12.3600388  44.7343540  68.0761719
  11.7948294  44.1569328  68.5893583  11.8185711  45.5033970  67.8983784
  63.4253407  58.5106707  45.4652071  64.1643715  58.2827759  46.0292339
  63.4871387  59.4602203  45.3614283  75.5415869  26.7138362   3.6607137
  74.8291874  27.2797060   3.9582223  76.3201189  27.0591068   4.0976387
  29.1483831  37.6913548   5.6483901  28.1991076  37.7891946   5.5739647
  29.4762564  38.5873985   5.7247889  75.0506544  10.5302560  42.6928711
  74.2285347  10.2604485  43.1021976  75.6409407   9.7893077  42.8299475
  53.8411236  59.7756720  62.9095268  53.0662203  59.9728107  62.3833179
  53.4927177  59.3944931  63.7154722  25.7971144  15.7361495  11.6486335
  24.8819351  15.4847908  11.5241420  25.7758617  16.3709402  12.3647487
  75.8448601  75.4616022  67.9349279  76.5857887  75.4751635  68.5407925
  75.6360483  74.5330667  67.8326702  38.5418296  74.2001820   2.5429982
  37.8944349  74.8892784   2.6921853  39.3832159  74.6183729   2.7258027
  78.1218863  76.4493418  63.7987089  78.2060957  77.4019670  63.7581205
  78.6386442  76.1955833  64.5634317  78.6314344  45.6607103  60.3412724
  77.6991177  45.8615255  60.4230404  78.7198353  45.2863646  59.4647551
   3.9086112  74.3791771  37.8132486   4.0987581  75.2234936  37.4043441
   3.2475159  73.9819622  37.2463202  30.0825810  61.9871855  22.8975892
  30.4498816  61.5862322  23.6853433  30.8134151  62.4699450  22.5115108
  30.7237720  41.0572290   9.0776801  29.9738359  41.6450548   8.9866328
  30.3395891  40.1808500   9.1020399  55.1131582   5.5951720  20.0937772
  55.3433752   6.3896263  19.6120369  55.6078196   5.6586725  20.9107900
  45.8934069  68.8204241  58.7379456  44.9435949  68.8799429  58.6352777
  46.0357046  67.9755640  59.1647863  82.7712250  72.1178913  42.4058723
  83.5838032  72.2952604  42.8796673  82.2786617  72.9368305  42.4601698
  29.7627926  74.7785950  67.9453325  29.0245318  75.1943779  67.4999857
  29.6179175  73.8402081  67.8241968  59.3231583  11.7776501  13.5496199
  59.9493647  12.1583986  12.9338849  59.3940449  12.3243690  14.3321192
  44.7980595  36.7941999   6.0126418  44.5774221  37.4130321   6.7087722
  44.9753284  35.9723020   6.4701253  30.6500411  30.3377128  13.3296156
  31.3691759  30.5061650  12.7207637  30.9120750  30.7788134  14.1376996
  67.0058918  58.6088419  39.7404456  67.7394724  59.2219019  39.6930051
  67.2657967  57.8802538  39.1766763  42.9245520  69.4910383  18.4386683
  42.7575302  69.6947765  17.5184369  43.0045605  70.3455687  18.8624716
  45.2779341  71.5291834  53.3965063  45.0038004  72.0795202  52.6628780
  45.9939671  72.0149517  53.8058472  72.6539946  48.9857531  43.0333138
  72.3464584  49.3744087  42.2144175  71.9384956  48.4134388  43.3103561
  58.8232803  48.9734697  68.2777643  58.9472723  49.8452330  67.9024124
  58.6911535  48.4031963  67.5204277  60.8476877  72.4369144   5.9325820
  61.6845322  72.4554157   6.3968939  60.9393311  73.0988693   5.2472723
  74.7040987  75.4141140  52.9654551  73.7550354  75.3006506  52.9140520
  74.8567915  76.3028812  52.6445055  60.5648327  58.0699825  66.3577795
  59.9579382  58.8077354  66.4180565  60.6636047  57.7667427  67.2602892
  11.8793273  16.8703747  48.5217142  12.5988114  16.2908566  48.7721825
  11.7149508  17.3993051  49.3023825  56.5776634  51.1162949  53.8570452
  56.1239147  51.0560894  53.0163813  56.0647535  51.7477989  54.3613815
  80.4514790  76.7749405  57.8386593  80.4252720  77.1219444  56.9469547
  79.7957706  76.0776234  57.8436804  68.3478117   0.6106645  42.9840946
  68.0281878   1.5083754  43.0745840  68.4399939   0.2974043  43.8838720
  18.7673485  10.7217908  65.2329636  18.2402647   9.9394572  65.3953505
  18.7550318  11.1957359  66.0645056  71.5818882  73.8400364  44.3334436
  71.6904545  73.1863880  43.6426544  71.6791344  73.3463717  45.1477337
  25.6521964  51.1305094   3.5091603  25.4343438  51.8254423   4.1303176
  25.1347566  50.3792286   3.7991089  15.2284646  34.4804668   4.9669406
  15.0842476  33.5387945   5.0601542  15.3405356  34.6135926   4.0256917
  33.8889623  12.7927721  58.1734467  34.4376659  12.6399171  58.9427280
  33.0639386  12.3518336  58.3762741  36.7050314  66.0434771  49.3282557
  36.2927175  66.4466619  50.0922394  37.3098779  65.3985548  49.6949530
  60.0179052  47.3476934  53.6623287  59.6573973  47.8831244  52.9555178
  59.2554426  47.0904207  54.1806889  72.5709248  43.2106638  65.0344086
  72.1262169  43.4912062  64.2345572  73.4592199  43.5567713  64.9485493
  21.5133095  59.9787569  60.3063965  20.6956697  59.5018959  60.1639223
  21.5490413  60.6123590  59.5898104  72.4756765  76.9221020  39.6063828
  71.9160128  77.1736765  40.3410339  73.0630684  76.2589312  39.9688935
  85.6180954  57.5418997  67.3929548  86.3655758  57.0433903  67.0628071
  85.5323792  58.2760620  66.7847681  59.9454594  73.3950043  33.0481529
  59.2385864  73.9435196  32.7080107  59.5362854  72.5427723  33.1981754
   8.2280821  55.4918909  38.9489222   7.3066103  55.5601025  38.6989832
   8.2215494  55.5445814  39.9046493  23.9710474  66.1398554   3.4473166
  24.7856832  65.8022261   3.8196170  23.3171749  65.9954309   4.1312921
  67.6557159  61.5178680  65.8809471  66.7804289  61.2811756  65.5742311
  68.0501842  60.6864500  66.1443233  35.1440263  72.0378590  67.0733404
  34.7566247  72.2439051  66.2226343  35.9620166  72.5346708  67.0906591
  24.0138102  74.8753309  54.1423178  23.5272694  74.1716003  54.5715952
  24.8668623  74.8761940  54.5765209  83.2633591  37.0345283  36.4868236
  82.8722382  36.7566276  37.3150897  82.5190449  37.3058081  35.9495711
  25.8516908   4.4965550  38.3697701  24.9721909   4.8721492  38.3292890
  26.3157725   4.8934224  37.6326418  72.1845341  39.9789667   7.9693139
  72.8133440  40.1951408   8.6578631  71.3638783  39.8200703   8.4356904
  82.3590469  60.0311852  60.9187126  82.1184349  59.5886612  60.1047659
  81.7055988  59.7371864  61.5533829   6.9759792  18.5189486  64.3806648
   6.3480818  18.3903694  63.6697197   7.6355749  17.8389704  64.2435694
  22.5967717   6.8208897  46.3591003  23.4778738   7.0909643  46.6178513
  22.2691512   7.5480032  45.8297586  42.2365236  76.0248852  57.3184967
  42.6421690  75.1613235  57.2414017  42.9566479  76.6407394  57.1829367
  10.3285265   8.5684288  68.3496666  10.3849804   9.2385334  69.0308475
  11.1904097   8.5768843  67.9333544  80.4713631  53.9016867  24.6471405
  79.8394537  53.7255907  23.9500666  80.2523518  53.2717085  25.3337216
  82.1826458  46.4069033  59.7908688  81.6706371  46.8086481  59.0889597
  81.9305992  45.4836607  59.7729254  29.1790700  69.0514374  63.7879896
  29.3691707  69.3302536  64.6837330  28.9961267  69.8648119  63.3176899
  42.1324158  27.2167444  -0.0635084  41.6295767  28.0276132   0.0131494
  42.9946709  27.4352908   0.2900274  86.3177872  51.0270309  63.9863253
  85.8061218  50.2937222  63.6447287  86.1874199  50.9892464  64.9338531
  64.7311068  31.2101316  52.2631550  64.0389442  30.5858183  52.0455027
  65.3002405  30.7352281  52.8687859  35.7771564  66.0767603  63.4177208
  36.6625285  66.1784935  63.7670040  35.7264161  66.7132330  62.7045870
  70.4280090  57.9137421  46.7558050  70.6370783  58.5972548  46.1191463
  69.6242332  57.5143385  46.4231586  69.7387648  54.9746799  63.5547066
  69.2930794  54.3129635  63.0258179  70.4771900  54.5095253  63.9478922
  57.3197079  51.0030317  66.3178158  57.0246696  51.4333296  65.5152988
  58.2729149  50.9717846  66.2363005  70.8899164  66.6214752  35.1673317
  70.4040098  67.1108532  35.8311367  71.7137480  66.3895512  35.5959845
  82.9208755  67.3311901  57.7023029  82.5609493  66.8700314  56.9446611
  83.0445290  68.2305241  57.3987532  34.3671155  70.4808712  60.5031061
  34.6215200  70.3268528  59.5932770  35.1326895  70.2174759  61.0137415
  21.5064406  35.0383902   5.9360367  20.5917430  35.0825834   5.6574559
  21.5953016  35.7420397   6.5788543  78.4236526  63.2418156  21.3476038
  77.8999138  62.5635624  20.9211040  78.7743568  62.8168392  22.1303153
  22.9192972   4.3425736  45.2819729  22.8084493   5.1640809  45.7605839
  23.1117368   4.6126050  44.3840408  44.2023897  72.7273321  46.8743992
  44.2266798  72.0271206  46.2222147  43.3835554  72.5842714  47.3490334
   6.5489125  25.2736998  52.1808481   6.5816927  24.6915412  52.9399586
   6.8865025  24.7443581  51.4583063  13.7103391  57.8507185  60.3236389
  12.9289651  57.7966928  59.7733927  13.6396790  58.7012053  60.7571268
   9.3888444  26.5767717   4.8745728   8.7058413  27.2009730   5.1197517
   8.9138043  25.7738876   4.6602207  12.4915409  53.9664841  40.9926414
  12.7007413  54.8949909  41.0943127  12.1354449  53.8967896  40.1068830
  41.0492277  75.7359791  49.1470480  41.5271044  74.9353266  49.3634272
  40.2454233  75.4291916  48.7275171   8.8695496   4.4257295  62.5161886
   8.4577012   4.1671419  61.6917229   8.3076411   4.0487087  63.1932020
  71.3782787  25.1883721   2.8340834  71.9053698  25.9833193   2.9145148
  71.9167995  24.5029020   3.2295120  72.5442457  21.8993568  15.4708540
  72.7233791  21.2741685  14.7685111  73.4076738  22.2180963  15.7337701
  51.0480881  77.1780634  65.5826855  51.7248440  77.8479385  65.4852152
  51.0726213  76.9461107  66.5110302  62.0436954  43.0707645  58.5978413
  61.3552284  43.3153868  59.2162371  61.9986439  43.7379980  57.9130077
  49.7954845  11.1223066   9.2385340  50.6196308  10.6370401   9.1994125
  49.2847347  10.7867146   8.5018224  54.1380453  37.3703218   7.5172520
  55.0556326  37.2427964   7.2764224  54.0414333  36.9044375   8.3478236
  34.8461580  17.6538384   5.4322910  35.0474119  17.9856956   6.3072765
  33.9092278  17.4597776   5.4593772  70.4438591  73.5809898  67.1618366
  69.7282410  73.5868740  67.7975130  70.5688953  74.5020866  66.9334126
  66.0933971  54.1995049  55.3919363  66.8927288  54.3042326  54.8758602
  65.7590771  55.0900030  55.4990673  45.3483725  58.2475185  39.7337627
  45.8027601  57.4680996  39.4139743  44.9862623  58.6536598  38.9462638
  11.3316119  52.3646450   5.0173640  12.2479951  52.1265221   4.8767579
  10.9348392  52.3139906   4.1477442  39.8127842  65.9604549  55.4689026
  39.8463368  66.4833498  56.2699556  39.1013312  66.3482857  54.9593449
  44.7325897  75.1037645  59.4114065  44.7122049  75.2356625  58.4635592
  45.3865385  75.7279253  59.7260714  70.0782251  70.5920792   4.0138653
  69.5844889  70.6002140   3.1938690  70.0580454  69.6777916   4.2965361
  72.3037577  77.8736162  27.7627206  72.1078730  78.3929920  28.5425329
  72.7649164  78.4785461  27.1816659  44.4631004  71.6759682  27.0978141
  43.8621998  72.0718002  27.7290559  44.9403477  71.0170650  27.6021123
  63.9671278  72.7991819  28.8925314  64.5696974  72.3701143  29.5000219
  64.5315933  73.3284473  28.3290672  66.6115046  77.5201750  20.7841372
  65.6842232  77.2849464  20.8166409  66.6221046  78.4013987  20.4105544
  12.4457979  81.0487461  51.2814713  12.8217149  80.6504250  50.4964542
  13.1813037  81.4982796  51.6976261  13.6981249  20.5647874   3.9776140
  12.8786874  20.9148169   3.6279956  13.4241784  19.9142182   4.6241012
  65.7170343   4.1319638  43.3497047  65.3890181   5.0265920  43.2587147
  65.3173733   3.6551780  42.6222610  36.5588593  62.6487875  38.9411259
  35.6279087  62.7048635  38.7256813  36.8503451  61.8332672  38.5334611
  64.3434477  66.5448856  28.8945174  64.6065998  66.4270020  27.9817820
  65.1520109  66.7831707  29.3480396  57.8381252  74.0831709  59.1987276
  56.9647169  73.9164257  59.5531082  58.4358263  73.7531042  59.8695803
  16.9816113   9.9946034  52.7127981  16.5100944  10.6483519  52.1965456
  17.8459811  10.3801894  52.8556967  21.5186644  38.8728428  45.0840759
  21.3660741  39.5538139  44.4289255  22.3477626  38.4715128  44.8237658
  59.0802050  78.1149769  21.7472196  58.6127901  78.0704641  22.5813508
  59.6649981  78.8670444  21.8402004  57.1344328  77.3480082  54.5549250
  56.6328955  78.0372572  54.9903917  57.2444439  77.6623964  53.6575460
  73.7970161  46.3196278  49.2103243  73.3011389  45.8107471  48.5689402
  73.8372660  45.7565880  49.9833727  10.3683567  35.7240868   0.4074045
  10.7117999  36.5293956   0.0204232  10.5028498  35.8343554   1.3486719
  55.2098989  74.5663643  31.3424516  56.1092949  74.2554951  31.4458299
  55.2751493  75.5182314  31.4194441  69.4699192   4.1636121  32.7343202
  69.6071625   4.9238688  33.2994795  68.5317421   4.1724324  32.5446320
  63.5469913  57.3008633  33.4119987  63.7561131  56.6245461  32.7677202
  62.9436827  56.8738890  34.0202236  57.6456785  14.3618274   7.5158060
  58.4085274  14.5774782   6.9793469  57.9988384  13.8376069   8.2346272
  45.2093935  42.3194885   0.5341586  45.7243872  42.2016907  -0.2640491
  44.4051886  41.8252230   0.3754596  81.9943714   0.8686779  42.2697973
  81.6232395   0.3481825  42.9822397  81.6116810   0.4952800  41.4758492
  69.5050526  62.9376316  25.9468436  69.5765114  63.8920879  25.9353113
  68.9850664  62.7457905  26.7272520  19.3539405   9.4245243  11.3117754
  19.1552413  10.3566456  11.2228954  19.7012377   9.3372452  12.1994686
  23.3676767  13.6727488  33.9037204  23.0579710  14.2905664  33.2414389
  24.1984987  13.3470178  33.5575032  84.9325943  70.5346823  61.6478395
  85.4366493  71.1376762  62.1942425  85.5910110  70.0806570  61.1219215
  70.1744461  40.1145554  59.6678734  71.0341311  40.2523708  60.0655890
  69.8463678  39.3142581  60.0779009   3.2082763  30.5345082  14.0364933
   2.8491694  31.3789535  14.3088639   3.6548674  30.7194138  13.2102990
  52.1732092  60.6472826  36.8573833  53.0945110  60.3897953  36.8236446
  51.7835331  60.0586748  37.5038552  78.1376553  75.0481892  25.6680775
  78.2338905  75.0383663  24.7157788  77.5107908  74.3487644  25.8526874
  44.0461397  36.1274791  13.7809694  44.1811180  36.7145634  13.0370986
  43.7763453  35.2984095  13.3858895  17.8684366  11.3891017  47.3544884
  17.5441515  10.6708014  47.8977299  18.5247707  11.8237853  47.8990126
  31.8275881  21.9523573  59.5896912  31.4513516  21.8963981  60.4680681
  31.3082266  21.3411403  59.0672874  73.7637520  72.9073238  51.5213299
  74.7196007  72.9406452  51.4829254  73.4796047  73.7377310  51.1393356
  58.2461262  66.0857582  31.7005014  58.5135460  66.4531422  32.5429678
  58.2493782  66.8325186  31.1016941  84.5209217  54.0946722  65.8684397
  83.8075161  54.2425632  65.2476263  84.4869709  53.1560755  66.0531473
  22.9317355  55.4057360  57.2971106  23.7805676  55.7105255  56.9764566
  22.9026628  55.6942320  58.2093382   6.6297752   1.9358632  58.2961130
   7.0026398   1.5348269  57.5110149   5.6999427   1.7113039  58.2612276
   0.4618377   0.3985518  58.2464838   0.5997666  -0.4974507  57.9392576
   0.1726776   0.8764428  57.4691582  67.1861410  58.2372141  50.7071495
  66.9262028  59.1350269  50.9135389  67.8883314  58.3330679  50.0637436
  29.2456484  79.2442369  66.8999624  29.7398496  79.9107409  67.3772192
  29.7433448  78.4372139  67.0312595  22.3171329  74.1806269  15.2660441
  21.9378734  73.7081814  16.0071170  23.2054591  74.3971157  15.5493140
  39.8227358  46.6907930   6.9643313  39.2070532  46.2355042   6.3899821
  39.4570494  47.5703907   7.0582408  25.0046873  54.2776394  13.2162261
  24.6007562  53.4743357  12.8879285  24.2957544  54.7345066  13.6689043
  76.8895578  18.2023430  44.6582651  76.7963457  17.2500265  44.6330452
  77.8159761  18.3473110  44.8505306  15.9031475  27.7373981  59.2983532
  15.9477234  27.7769160  58.3430052  15.2771997  27.0364118  59.4801235
  80.6385326  75.1730919  31.3163137  81.0082817  74.4689703  31.8489718
  81.3615894  75.4542208  30.7556105  52.9635429  62.3051929  52.3450136
  53.4075451  62.6096439  53.1364727  53.1432533  61.3654613  52.3160172
  55.0985384  25.7087302   3.7428647  54.2512274  25.6455755   3.3020622
  54.8807716  25.9131861   4.6522641  61.4492846  30.5913305   3.1796706
  61.0604429  29.7336888   3.3513847  61.9636297  30.7824826   3.9639822
  78.9349461  73.5988808  33.7290740  78.3300877  73.9076042  33.0544853
  78.7319994  72.6683807  33.8250542   4.2736173  17.5938392  52.3050785
   4.2786717  18.0012488  53.1712341   4.9912167  16.9610250  52.3338556
  32.0363474  42.3276138   6.4482576  32.6567507  41.6850710   6.7924565
  32.5851750  43.0467319   6.1353821  47.9269505  61.9481611  20.4306912
  47.9853153  61.3586235  19.6788454  47.2061968  62.5401354  20.2154899
  53.3883333  66.5993547  62.0850992  52.5165844  66.2893105  62.3303652
  53.2770300  67.5393915  61.9430685  52.6016426  77.1534920   9.1126126
  53.3288574  77.7706623   9.1931885  51.9200039  77.6450300   8.6543679
   0.8891727  53.0502462  48.7196827   1.5074006  52.3741102  48.9969254
   0.6810575  53.5282087  49.5224714  48.0627298  29.9425745   8.2662016
  47.4385643  30.6471157   8.4401983  47.9814959  29.3589187   9.0205085
  72.4803877  68.8269949  25.9364653  72.9527187  69.6426487  26.1033487
  71.6047335  69.1074371  25.6703591  11.8558800  74.4322634  35.0514483
  11.6130447  74.8959541  35.8528566  12.4449813  73.7376070  35.3458047
  32.4473119  42.5634813  20.9749675  31.5016294  42.7095127  20.9506440
  32.5513196  41.7490292  21.4669871  65.3502846  70.6529856  44.1562986
  64.9086666  71.2358427  44.7739410  65.1955509  71.0504580  43.2993841
  14.5786095  77.6963091  64.9066830  13.6327934  77.6344156  64.7731352
  14.7569275  77.1022940  65.6357813  36.3073611  44.3232489  12.5188339
  36.2081504  44.4935608  11.5821469  35.4741716  43.9314556  12.7806056
  74.5795631  74.9685001  40.4151535  75.3776217  75.4800129  40.2821398
  74.6387911  74.6633053  41.3204622  78.9455271  63.9278555  37.7554941
  79.2763805  64.1229677  38.6322474  78.6282778  64.7689152  37.4265528
  59.9315119  61.5352774  50.6048155  60.5241728  61.0201550  51.1522102
  60.4344654  61.7148638  49.8104477  35.8144808  81.3753319  58.3950615
  35.9995103  80.9882164  59.2507124  36.6755319  81.4910126  57.9932642
  75.9692287  71.8329525  40.0134468  76.4682579  71.0521698  40.2534056
  76.5827179  72.3619843  39.5035529  63.2825518  61.3630819  68.7091541
  63.8604307  61.7168617  68.0330420  63.8692045  60.9007215  69.3077278
  76.6686773   7.6417440  49.5760298  76.1329508   7.6439738  50.3692627
  76.8161201   8.5678166  49.3839836  73.2401848  70.9374523  32.8606081
  72.6475859  70.3958511  32.3393369  73.2881308  70.4934454  33.7072420
  68.5787058  16.0112691  54.9690151  68.6643744  15.3678906  55.6725502
  69.4738340  16.3086641  54.8061180  16.7128551  22.1693230  18.4333324
  16.1998272  21.6195250  17.8410864  16.3042808  23.0328202  18.3727515
   6.4014614  25.9997416  39.6212649   7.1208745  26.0808825  40.2474403
   6.7773026  25.5155158  38.8860774  32.3695993  17.1298623  50.9530258
  32.0812869  16.2443697  51.1744070  31.6793442  17.6987290  51.2938595
   1.1364162  76.8512964  69.4534779   0.2532423  76.4872551  69.3925619
   1.5554327  76.3477230  70.1513863  85.9550667  74.2757225   5.3665525
  86.8948269  74.4487143   5.3103209  85.6276894  74.9296713   5.9841317
  83.1959438  49.2118788  51.1770725  83.5011578  49.5509434  50.3355789
  83.6606312  49.7361660  51.8293142  68.7222576  36.9054961  57.7384233
  69.2857361  37.0819163  56.9850302  68.2873201  36.0801744  57.5241613
  52.3867369  53.4077883  14.8197305  52.6606035  54.1594124  14.2941010
  51.5075922  53.6349201  15.1226246  60.7528639  53.5991812  25.8698559
  60.6339455  54.1150761  25.0723958  61.7015743  53.5041809  25.9544182
  29.3537426  20.8504176  44.0872574  29.6594810  20.3219485  44.8244667
  29.1526651  21.7037821  44.4713974  62.9693079  51.2363100  52.9250622
  63.7875986  50.7953453  52.6966190  62.5484991  50.6497145  53.5535955
   8.3386165  15.4967296  29.7361898   9.1413307  15.2609980  29.2710972
   7.6673919  15.5285501  29.0545201  52.4268866  52.7027893   3.5456145
  51.8563700  53.0865669   2.8796890  53.2991838  52.7188635   3.1518295
  67.2828722  31.2807012   6.8243796  66.8740845  30.5823898   7.3357373
  66.6239500  31.5165448   6.1713624  81.7717075  48.5466099  44.2579794
  82.6045227  48.9826202  44.0775585  81.5453053  48.8209629  45.1466322
   9.3573236   5.8388937  40.2252579   9.2209417   6.0802305  41.1414433
   9.8148853   4.9990487  40.2643681  64.0313625  62.6736021  47.6025009
  64.2378712  63.5375118  47.2457886  63.8039541  62.1463633  46.8366432
  11.2160254  29.7264099  31.3682294  11.7844164  29.0922689  30.9311604
  10.3941047  29.6883464  30.8791184  29.9208951  57.7136707   0.8465329
  29.4532013  58.1100607   0.1114345  29.5395589  56.8396616   0.9297349
  78.2251358  73.6037636  53.3145142  77.7749062  74.2880011  53.8098383
  79.0628767  73.4942389  53.7644386  51.7399883  17.3678923   6.4718378
  51.3397980  17.2309315   7.3305130  51.1466885  17.9713845   6.0245943
  29.7465467  40.4419994   5.8065981  30.4512858  41.0028887   6.1306071
  28.9434910  40.9091568   6.0370332  27.6290941  10.9551454  51.0264683
  26.7803907  10.5215240  50.9375381  28.2235265  10.4303718  50.4902840
  77.5040197  56.5635157  51.0628033  77.8502226  55.9799004  50.3877020
  78.2395029  56.7024469  51.6594601  36.6091013  26.0250902  21.3461590
  36.5271974  25.0743461  21.2712574  35.7673645  26.3628483  21.0401678
  63.6996460   6.2945122  11.3879371  62.7868843   6.5634614  11.4916933
  63.6600018   5.3424203  11.2974882  81.4440346   6.4146787  48.0738354
  80.7669163   5.7458228  48.1756353  81.5345669   6.5216792  47.1269512
  61.3180637   7.2620547  11.0679829  61.3894844   7.2569960  10.1134646
  61.2750006   8.1897038  11.3000286  55.1383114  61.6489124  38.3380294
  55.8246088  61.3344669  38.9265466  54.9117804  60.8865833  37.8053284
  84.1464424  31.2477803  33.6711121  84.5389557  30.4956460  34.1143513
  83.3500862  31.4308095  34.1696596  24.9114299  33.4913802  21.1771894
  25.1861429  32.5924635  21.3580656  24.9525094  33.9299726  22.0270014
  49.1210461  57.6719046  46.2804556  50.0718451  57.7311611  46.3737106
  48.8837528  58.4364080  45.7556200  76.6327143   8.0233163  25.5541372
  77.4633694   7.8712761  26.0048342  76.8004227   8.7792218  24.9913645
  39.6669960  33.6763597   8.8584685  40.3653717  34.3291736   8.8101590
  38.8724661  34.1867280   9.0149283  17.3226964   6.8871707  29.7425342
  16.4581931   6.5662581  29.9992061  17.7221787   7.1804148  30.5614686
  18.9565098  10.5683315  38.1826329  18.1648564  10.7208657  38.6986279
  19.0294647   9.6152604  38.1319928  14.2972720   3.1697482  43.5948324
  13.7604654   3.8217065  44.0454102  14.2096210   2.3785551  44.1263962
  59.1292286  79.9052858  67.6465225  59.0145493  80.4517841  66.8690777
  58.5996008  80.3324127  68.3197832   4.9280652  18.0939519  62.8660965
   4.6020535  17.4638164  62.2235394   4.6507096  17.7397346  63.7109804
  25.5126572  11.3682389  29.6591759  26.0265994  11.9663727  30.2016997
  26.0723925  11.1893427  28.9035797  44.6760988  64.7422552  66.2902784
  44.1618061  64.2843390  66.9551468  44.0969276  65.4362917  65.9754610
  86.2921429  73.7000227  57.0631838  86.0811424  74.0770149  57.9173422
  86.5096569  74.4543743  56.5155697  64.6410561  57.8443146  26.3998675
  63.9810038  57.1608400  26.2839937  64.1962719  58.5232830  26.9072104
  16.3293731  60.5300856  58.2467127  15.3784525  60.5511189  58.3541393
  16.4927375  61.0465574  57.4575377  84.6031666  51.3064098  52.4324417
  84.1288948  52.1376801  52.4493933  85.5267429  51.5571594  52.4515438
  53.1545544  50.8625507  15.3644121  52.5972939  50.8200264  16.1415100
  53.0387163  51.7538214  15.0350916  27.7990198  25.2516150  53.8765574
  27.9721308  25.8868551  53.1817627  28.5267854  24.6322846  53.8216114
  24.2773771   7.5424421  61.6919184  25.0118732   6.9520998  61.8599844
  24.6841931   8.3417076  61.3573885  40.6716299  64.1794538  53.4511375
  41.4171076  64.5629978  52.9891968  40.6835413  64.5962667  54.3127394
  84.1042519  10.7796896  62.7496481  83.9655590  10.3727627  61.8944216
  83.4648418  10.3566241  63.3227110  40.4750252  40.1949167  16.2056112
  39.6436453  40.6532288  16.3280547  41.1106539  40.8915472  16.0415590
  45.5157757  75.7103539  66.6225624  46.2817621  76.1641788  66.9740343
  44.8824215  76.4071989  66.4508009  44.3876934  71.7995596  36.2249470
  44.2848253  72.2207594  37.0783162  45.1037169  71.1767387  36.3500142
  37.4357724   1.6707303  36.0400605  37.8588557   2.3889396  36.5106010
  37.8158212   1.7028238  35.1621294  18.9755297  18.4912252   5.9164637
  18.6281812  18.4165215   5.0276446  19.4681799  19.3119049   5.9129006
  59.0951681  64.9068880  54.9232149  58.8764906  64.0306234  54.6060801
  60.0174713  64.8481464  55.1724815  71.6211271  52.5967836  26.9961691
  70.9675980  52.0706511  26.5353870  72.4288750  52.0875216  26.9295669
  25.8091307  59.4159937  51.7381239  26.2666535  58.5867739  51.5991974
  25.0943017  59.4047022  51.1016273  55.5434322  27.1582937   1.0168209
  55.8023405  27.7756596   0.3326711  54.8721981  26.6133118   0.6061243
  62.0993567  44.0295744  15.4740536  61.6321707  43.3663893  14.9659586
  61.4850521  44.2791080  16.1644125  16.5258622  20.5839944  64.1269445
  16.5681887  20.4271793  65.0702620  16.2712646  19.7395802  63.7549591
  85.3410721  54.8676395  43.3391047  85.7766724  54.0798426  43.6644602
  85.6031799  55.5560350  43.9503670  50.2189636  30.2226520   4.1878411
  50.5886412  30.0094414   3.3310390  49.4072008  30.6892943   3.9890504
  66.6982174   5.8133674  40.2079058  67.3267508   5.1229739  40.4189491
  66.8383455   5.9885627  39.2773700  63.4570837  76.1148596  44.1899920
  63.4032583  75.7083559  43.3250713  64.3936157  76.2525606  44.3320560
  10.5790925  72.1113062  40.0561047  11.3762951  71.8123913  39.6186686
  10.4282916  71.4657021  40.7465315  62.0707798  26.2139106  52.6969385
  61.6844845  25.6354070  52.0394087  62.8296947  25.7311916  53.0244493
  60.4935932  45.6509590  13.4141040  59.7843504  46.1029482  13.8711774
  60.5235338  44.7832251  13.8170648  81.2153149   3.2871482  62.4613476
  80.7843494   4.0267143  62.0329285  81.2419319   3.5289547  63.3871222
  63.8110876  46.5820789  16.0739279  63.0169106  47.1163845  16.0796297
  63.5343885  45.7457161  15.6995404  79.4848490  58.7994385  41.8855190
  79.3922901  58.6520624  40.9442711  79.7284794  57.9439497  42.2390842
  19.4444001  14.8464930   6.3651180  19.0943682  15.7178533   6.5507025
  19.1140807  14.2989886   7.0774096  70.9874201   0.5664664  14.1217828
  70.9817553   0.3519261  13.1889522  70.2141142   0.1255352  14.4736540
  38.9891171  13.0696201  13.9973032  38.8281631  13.2833922  13.0782676
  39.8655248  13.4121013  14.1729355  26.0788512  50.8924150  51.1711693
  25.3799725  50.2383614  51.1671305  25.6645060  51.6877508  50.8365154
  45.1577187  62.3573589  23.0467772  45.2407503  61.9773245  22.1721840
  44.2967415  62.7756357  23.0454159  40.8403015   3.2460454  19.1876900
  40.5861330   3.7330884  18.4038401  40.8179283   3.8952005  19.8907745
  48.5959148  29.8476434  21.7946863  49.1347265  29.5977855  22.5453401
  49.1061306  29.5746851  21.0321856   4.5348597  68.5346985  59.1464472
   4.3040842  69.4185305  58.8604116   4.5182613  68.0115986  58.3449984
  26.2687683  72.0122862   4.7343972  25.6585145  72.6722431   4.4053403
  26.8325686  71.8135023   3.9868379   0.4951507  55.1336336  37.8028584
   1.3412264  55.5706358  37.7058268  -0.0430593  55.7588291  38.2883406
  20.7394743  27.2305226  64.8233271  20.5155301  27.9352355  65.4311609
  21.4528561  26.7599916  65.2545071  40.0024796  12.2111917   5.0807047
  40.1862478  13.1505728   5.0755507  39.1026545  12.1414173   4.7618315
  14.4594002  75.0706005  58.5146809  13.7480223  75.2598095  59.1265392
  14.3709230  75.7352638  57.8315783   0.5054501  42.2685909  48.9543295
   0.8174503  42.1721983  48.0545568  -0.3554037  42.6778555  48.8667822
  84.4129944  78.1972933   9.5361221  83.7848949  78.8374186   9.8707283
  84.3563175  78.2810736   8.5842818  78.2827950  63.4849977  41.7364597
  77.4984980  62.9450655  41.6385841  79.0102959  62.8713179  41.6346073
  37.8832960  57.0135689  48.2979727  38.0454040  56.1050940  48.0437374
  37.2992992  57.3516941  47.6191139  55.7414150  54.3994331  22.4689484
  56.0098457  55.3106165  22.5869346  55.7811069  54.0223265  23.3478379
   9.6236962  52.1805573  14.0483606  10.5722487  52.0537567  14.0283096
   9.4020736  52.1834660  14.9795461  61.2189388  73.6326361  37.9925823
  60.7496214  73.8579798  37.1893430  60.8305359  74.1950321  38.6627173
  71.5175819  43.9172697  13.9318264  72.2586489  44.5221615  13.9659071
  70.8457947  44.3307304  14.4740248  77.6555824  11.7630029  57.9324484
  76.9281006  11.7158735  58.5527563  78.4399176  11.7189455  58.4793568
  50.5908966  29.1050053  31.0661221  50.3211212  30.0082922  30.9002137
  50.6351042  29.0396142  32.0200634  63.5973644  63.8798475  51.1818457
  64.2157793  64.5879936  51.3616371  63.5553694  63.3850193  52.0001459
  34.8249722  28.9782476  16.7394960  34.2506671  28.2509112  16.9790494
  34.5957756  29.1752982  15.8312714   7.7904397  51.3988352  63.1278706
   7.2457415  52.1767569  63.2477617   8.6771864  51.7420101  63.0176687
  86.8102264  81.2135792  51.2884808  86.1410141  81.8813419  51.4384079
  86.6151619  80.8705711  50.4163980  10.7596612   4.7252423   8.6475790
  11.1988747   5.4821587   9.0353936   9.8972607   5.0532871   8.3928555
   4.0873083  50.0609159  70.4690313   4.1941014  49.2448139  70.9577084
   4.9711528  50.4241705  70.4133749  75.5555201  79.8280954  28.7422013
  75.8376408  78.9676428  29.0524650  76.3684416  80.2782631  28.5125637
  80.0495845  70.4935859   0.2330820  80.3681594  70.8801888  -0.5825670
  80.7561618  69.9125026   0.5147116  59.4157982  61.3885927  27.0236278
  59.4609880  62.1749163  26.4796710  58.6301947  60.9329653  26.7211962
  54.3083143  59.3480110  15.1135147  54.8388004  59.7804976  14.4443619
  53.5926676  59.9602556  15.2844918  79.0387249  57.2160721  53.4746790
  79.1690588  56.4293480  54.0041256  78.4422112  57.7569580  53.9922142
  22.0444155  33.4070778  21.1140490  21.9015455  33.9932370  20.3709245
  22.9937172  33.2888007  21.1467528  26.4913201   7.1333051   9.9272692
  27.2689986   7.1259964   9.3692422  26.4206791   6.2354386  10.2514255
  50.7869482   3.8937491  51.0888100  51.5746069   3.3564249  51.0044956
  50.7862854   4.4425163  50.3045368  85.6635189  49.1407251  30.2859521
  85.5179024  49.6327877  31.0939765  85.8814716  48.2562971  30.5800915
  14.6508598  48.2510233  55.2432823  13.8002574  47.8295422  55.1205635
  14.4390237  49.1569757  55.4682446   1.5279815  75.6009150  36.3471723
   1.2183546  75.3976107  35.4645467   0.8575600  76.1807156  36.7085552
  35.7152247   4.5540693  56.7463207  36.2932730   3.9153987  56.3289547
  34.8383975   4.1824436  56.6498995   7.5274438  76.2826872  54.1803026
   8.1325972  77.0057106  54.0151978   7.7893031  75.9417200  55.0355196
   3.2646987   2.2781874  43.2309484   3.4613582   3.0089691  43.8170528
   3.4207228   2.6265064  42.3531342  69.0533638   8.9763153  54.8399639
  69.0543652   8.0632198  55.1271677  69.3122959   9.4720244  55.6167889
  11.2107599  72.4072266  49.7154665  12.1317053  72.6164913  49.8713493
  11.2314034  71.7056131  49.0646648   3.1492919  24.7178197  52.1935749
   3.1531176  23.8332105  52.5592089   2.2302416  24.9840283  52.2202349
  21.0247970   6.8200535  59.5801401  20.8625722   7.3014677  60.3914070
  20.2439737   6.9759732  59.0488863  56.0991240  65.2787495  28.7142944
  55.4089737  64.8118401  29.1853833  56.8974304  65.0858116  29.2059326
  33.9683366  18.5806203  13.3972239  33.3354902  18.4589911  14.1049969
  34.7477126  18.1076097  13.6888874  37.1565819  22.3133206  34.1735697
  37.0155621  22.2460675  33.2292080  37.5533128  21.4768147  34.4166660
   9.4991344  74.5909166  42.7131414   9.4007593  73.6388445  42.7235699
   9.0542316  74.8863888  43.5074949  80.1239491  60.4265499  22.4801993
  80.9051609  60.4922199  21.9309950  80.4027176  60.7580090  23.3338118
  50.3784609  12.6151645  48.1362486  49.9283600  11.8056297  48.3776903
  51.3088465  12.3953295  48.1840611  10.7563055  16.7228985  56.1583328
  10.4695523  17.2976875  56.8679953  11.4453459  16.1854613  56.5489912
  16.6404939  35.5566597  45.9443331  16.9731236  36.4243889  46.1737537
  16.9094455  35.4299140  45.0344801  42.5142479  74.8157644   6.1143363
  42.5876665  75.7574511   6.2694740  43.2713223  74.4393539   6.5630901
  36.7575765   5.9204900  27.3076534  36.4444780   5.0225091  27.4164319
  37.7088094   5.8542675  27.3913264   6.5980572  47.7620459  46.1920023
   6.6381443  46.9074917  45.7626295   5.9102368  48.2339621  45.7224989
   7.5916690  28.9137268  36.3072419   8.2072717  29.6466970  36.3027358
   7.8000373  28.4308553  37.1070218  45.1488209  12.2548854  56.0112286
  44.6425056  11.8160617  56.6948318  44.5212936  12.8397357  55.5865049
  24.2597198  42.9700232  43.6640072  24.9156809  42.9026747  42.9701710
  23.5776949  43.5312891  43.2951546  61.4646530  43.3727980  10.8566034
  62.2659874  43.4953070  11.3656116  60.9606314  44.1724920  11.0072029
  12.6230943  22.2813702  28.3756566  12.9594445  22.4735522  27.5003457
  11.7307246  22.6276135  28.3706880  44.9563456  13.1420195  41.8160963
  45.7207918  12.6533771  42.1211863  45.3227043  13.9012825  41.3627386
   2.8668416  76.9525480  58.5087919   3.7985784  77.0607567  58.3180332
   2.4215227  77.3391533  57.7548265  78.4502077  42.3172235  21.0592675
  78.1003141  42.6948500  21.8662381  79.1478062  41.7308187  21.3520503
  55.6602716  61.8197298  16.4038908  55.0904465  61.0506344  16.3983250
  55.7438517  62.0491982  17.3294115  37.2210431   8.9849985  37.9214883
  37.8895497   8.7789047  38.5748315  37.4213409   9.8801655  37.6480126
  63.0206251  61.5169668  17.1241510  63.7970495  61.4217854  17.6758182
  62.5757170  60.6719303  17.1889484   5.6513739  50.5118990  41.2844896
   5.8084834  51.2965250  40.7592201   4.7096360  50.5227566  41.4554977
  43.1455660   6.9893587  27.9932046  43.4602642   6.3255167  27.3795986
  42.3606634   7.3465818  27.5778151  16.6292334  35.7057977  63.6277390
  16.1090386  36.3242960  64.1406631  16.6291058  34.9028707  64.1488361
  42.8042936  67.3539448  38.4944201  42.9493189  66.7170095  39.1940713
  43.5940409  67.3023129  37.9560328  50.0068521   7.9524344  59.1575241
  50.0191355   7.8207338  60.1055431  49.1064358   8.2129383  58.9635515
  83.5278511  25.8741927  50.1764822  84.1854286  25.3505778  50.6343603
  83.7457180  26.7795157  50.3981876  18.0736935  77.4123192  59.8876047
  18.5313380  78.0209970  59.3076897  18.5574758  77.4576521  60.7123041
  13.2058730   0.2461147  33.1360269  12.9747691  -0.6699085  32.9819798
  12.4704756   0.5975151  33.6379671  11.3958180  13.5503769  49.4373226
  11.6351020  12.7171266  49.8431158  12.2207570  13.8967299  49.0971041
  13.6565447   9.8550862  27.1100998  14.1030216   9.5224327  27.8887081
  12.7257299   9.8029047  27.3271132  85.2530479  57.3660612  27.9482317
  85.4690838  56.4352274  28.0039740  85.2029324  57.6552868  28.8593149
  11.6382742  78.7952805  16.2981045  10.9230626  79.0072393  15.6982899
  11.2599993  78.1612587  16.9073284  69.5736694   5.6043613  58.3760548
  68.8549757   6.1053067  58.7617493  70.0997639   6.2571222  57.9141426
   7.5022817  63.9410686  44.1044092   6.9450998  64.3441963  44.7701931
   7.6133794  64.6218920  43.4408045  55.4393721  12.6365840  51.9272995
  54.5713615  12.3392510  52.2000313  55.9985685  12.4714756  52.6864243
  58.9655066  31.7923760   5.5660206  58.8335514  30.9018946   5.2406567
  58.9151335  32.3428321   4.7845513  70.8853817   0.2398545  50.7770252
  70.6200266   0.4194202  49.8750401  71.8335152   0.1179181  50.7279921
  23.5271788   9.5009947  30.2746391  22.8457046   9.9039543  30.8126426
  24.1770053  10.1932347  30.1531434  65.5923939   6.7456400  45.1265860
  64.9183321   6.8189096  45.8022356  66.0591602   5.9378129  45.3405380
  77.2308493  76.9889736  16.3020623  76.5456057  76.9850063  15.6337380
  78.0473900  77.0587969  15.8074725  31.5883946  68.2680416  45.3780317
  30.9839773  67.8537416  45.9938765  31.3597941  69.1971111  45.4064226
  71.4965725  71.7942381  19.4536448  71.3953972  70.9783840  18.9633572
  72.3168039  71.6844463  19.9346805  82.0662689  80.3882694  40.8051586
  81.1724281  80.6990051  40.9490967  82.6209259  81.1172104  41.0830736
  35.6786013  25.7367945  34.0883017  35.5206394  26.6212940  34.4183636
  35.6948972  25.8357334  33.1363678  55.3088236  73.6252880  18.6938119
  55.5893135  73.8532114  19.5801568  55.6852388  72.7589655  18.5388076
  13.6561698  81.6143845  25.8698630  14.4431609  81.3923391  26.3674283
  12.9540461  81.6161985  26.5204453   9.3003356  67.4182892  32.8669333
  10.2547050  67.4278975  32.9398584   8.9907771  67.4314833  33.7725997
  66.4606524   4.1063148  51.5476656  67.0762396   4.8133457  51.7410469
  66.7228460   3.7902647  50.6830311  13.1539881  69.0906811  31.5747452
  13.7636054  68.6459684  30.9858227  12.7073884  69.7296095  31.0192704
  10.0119197   9.3282652  59.8067522  10.4742932   9.4653875  60.6335783
  10.0133586   8.3786952  59.6861506   8.9943886  73.9257336  21.1465049
   8.4453440  73.5946703  20.4357457   9.6988958  74.3993425  20.7042480
  42.2609425   5.9661746  68.1884098  42.9486322   6.5156150  68.5644817
  42.6184845   5.0788695  68.2213354  69.1930866  75.9880495  52.7129602
  68.3436584  76.4272022  52.7559757  69.0438795  75.1370335  53.1249619
  82.4485207  67.9869461  32.3712063  81.6153049  67.8827620  31.9117093
  82.9700756  68.5479498  31.7972016  25.5007410  74.4679022   2.1109907
  25.6403756  73.6953831   1.5633112  26.2280822  75.0507116   1.8929610
  42.6141119  19.3454123  49.2246008  42.4597549  18.4551966  48.9084959
  41.7402887  19.6872950  49.4137526  82.7491474  67.7721262  64.9434328
  82.0730400  68.4022188  65.1925993  82.9979038  68.0265856  64.0548372
  36.3600349  60.0016308   3.1753582  35.7258749  59.7355461   3.8411462
  35.8823800  59.9331570   2.3486847  47.0012569  64.1577768  41.5244627
  46.7773247  63.2594109  41.7674112  47.9032946  64.2693090  41.8246508
  10.6151688  75.1690722  64.8666811  10.1931190  74.5369864  65.4485464
   9.9712873  75.3258848  64.1759872  22.2363949  35.7826567  51.3095379
  21.6393328  35.0868225  51.5844297  22.9948950  35.6889701  51.8858480
  14.6432364  12.1744955  44.8590946  15.4706311  11.7033935  44.7605371
  14.8117626  12.8119659  45.5529690  80.4048061  53.1300735   0.2896005
  81.3368130  52.9583883   0.1549703  79.9611139  52.4173021  -0.1700940
  65.2057981  71.1090469  50.8617973  64.5597267  71.0805416  50.1561022
  65.5712795  71.9925594  50.8163834  19.5506012  29.1757298  66.5112352
  19.3984544  29.3167233  67.4456882  18.7038636  29.3525386  66.1013508
  31.9743037  58.0813932  55.8698511  31.1845636  57.6432133  55.5527687
  32.0241880  57.8445482  56.7959404  45.4332161  49.9909973   6.6897440
  45.0235939  49.1361284   6.8225682  44.8348951  50.4548693   6.1040270
  81.3689899  73.1701517   2.2831419  81.4687538  72.2710705   2.5960925
  80.9789085  73.0792522   1.4137711  58.8830376  13.4693575  65.3184366
  59.7820330  13.2673848  65.5777454  58.4485626  12.6174474  65.2770472
   9.9894601  61.5044355  51.0803223   9.6834779  60.7109165  50.6410789
  10.5158579  61.9556761  50.4203844  76.2034893  20.9720659  56.9601583
  75.8409786  20.1449156  57.2773981  75.6020594  21.6394830  57.2904110
  33.7842965  77.0915031  50.6648636  34.0867162  77.9659176  50.9101677
  33.7284803  76.6160774  51.4937687  38.3141732  24.0050197  19.7716129
  39.0546250  23.4009933  19.7157800  38.7047839  24.8728728  19.6692002
  27.1776366  20.4838085  36.8571854  26.3740039  19.9940753  36.6823506
  27.1468306  21.2204289  36.2467146   3.9058945  55.1922083  46.3838625
   4.2304948  56.0621548  46.1513472   4.6029133  54.8113728  46.9180536
  51.8910885  31.1720300  68.7307787  52.3692513  31.9206166  69.0874434
  52.0670557  31.2014389  67.7903509  46.8436956  12.9126894  14.9503899
  47.7607822  12.6628375  14.8374712  46.6630554  12.7489102  15.8760130
  36.5408731  32.8767300  53.3116102  36.4983201  31.9400144  53.5039186
  37.4020791  33.1476545  53.6296558  49.0363312  43.7726688  18.1543338
  48.4722662  43.2142496  18.6893368  49.8968458  43.3557129  18.1978655
  31.6669106  44.6159744  13.2828426  32.0931840  45.3681850  13.6935699
  31.1224031  44.2416191  13.9753759  49.9745131  21.7376852  63.2832909
  50.3208685  21.4392519  64.1242456  50.6827307  21.5733600  62.6606703
  32.6286221  23.6984420  50.6479645  32.5077224  24.1538572  49.8147726
  33.5731530  23.5552120  50.7077789  79.9433088  67.2649193  20.4370213
  79.1130829  67.6021385  20.1005197  80.6086349  67.6627779  19.8755217
  32.4553466   4.5370963  32.7375174  32.2443604   4.8476964  31.8570375
  32.3497581   5.3079170  33.2951188  22.6696754  27.6963639   2.1629778
  23.5569501  28.0204225   2.0081767  22.7719378  27.0365310   2.8488320
  43.7773275   0.7827170  45.7289314  42.9028559   0.4964092  45.4651976
  44.3583250   0.0822831  45.4321671  11.5977502  81.1932850   3.4439990
  11.4997447  80.4402256   4.0266839  11.1240745  80.9450912   2.6501077
  28.2646441  17.9819822  35.6245589  28.1048465  18.3890259  36.4760375
  27.8046036  17.1437943  35.6696630  60.6787205  69.3401241  19.9932206
  60.8151531  68.4226561  19.7568512  59.8804140  69.5910263  19.5284712
  24.1115546  21.8932390  32.7943301  23.7937808  21.4689207  31.9973302
  24.7580194  22.5283170  32.4861193  85.7975197  66.7008305  63.0521679
  85.9395504  66.5168905  62.1236086  84.8617554  66.8910933  63.1182528
   5.3437573  16.1849391  21.9588375   6.2121594  16.3989484  22.2998786
   5.2502894  16.7337716  21.1801982  20.3604555   3.9640507  44.3166876
  21.2672567   4.0015122  44.6208858  19.8494315   4.3228468  45.0421858
  82.1742439  80.1437664  29.2982411  82.0087337  81.0841560  29.3654418
  82.9248047  80.0742340  28.7082815  25.6116390  47.4714661  14.2426610
  25.3413177  46.6545868  14.6620238  26.1436105  47.9151964  14.9032235
  77.7548599  74.9027300  46.9222832  77.2665453  74.1065454  46.7128229
  78.4607601  74.6065617  47.4969244   8.1615049  73.8971329  37.0820069
   8.6468995  74.7205925  37.1323705   8.2147664  73.5332727  37.9657483
  31.6846728  81.2546444   9.2647594  31.6610098  80.5118847   9.8680705
  31.5077949  80.8711910   8.4057403  42.4292183  61.0307837  26.2665129
  41.4833879  61.1241293  26.3801813  42.8082180  61.5648699  26.9646144
  74.4996357  74.2142153  36.2261248  74.2562866  73.7887621  35.4039335
  74.0235138  75.0445461  36.2162185  53.8333225   3.5071471  45.9618330
  53.4693956   4.1337663  45.3364229  54.7812843   3.6155477  45.8853960
  31.0076046  66.4154339  55.0140381  30.4262233  66.8702412  54.4046307
  30.5005527  66.3471842  55.8230352   8.2783979  76.3557339  30.8902740
   7.8267622  75.5779505  31.2178493   9.1065478  76.0236502  30.5436945
  19.9710464  74.7451067  23.8836980  20.0762749  74.3185806  24.7341299
  20.5770564  75.4855537  23.9104962  16.5466917  75.9853411  46.8121576
  16.7001963  75.6161070  47.6818323  16.7968130  76.9055557  46.8950891
  10.1398993  51.8257666  54.1539478  10.5396688  51.7950583  53.2847643
  10.1128626  52.7573204  54.3723679  22.7556729  48.0658579  62.1164370
  23.6982036  47.9533195  61.9931364  22.3582315  47.4918699  61.4616060
  58.8330793  68.8956356  60.5204868  59.2721510  69.5839977  60.0208807
  59.5162868  68.5386658  61.0879612  49.0200043   6.1017740  62.1934700
  48.8715553   5.6967211  63.0479431  49.5236921   6.8922925  62.3874044
  16.7754519  47.7261877  53.3006763  16.3907659  47.9905796  54.1363430
  16.7940044  46.7698765  53.3374357  38.8915133  78.7082767  40.5930614
  38.6525083  79.1631842  39.7854948  38.4155488  79.1743994  41.2803888
  60.1543283  78.8996029  31.1226630  59.3682861  79.4009972  30.9059381
  60.4379654  79.2516994  31.9663501  54.2640066  76.5860319  60.6373119
  53.5740423  76.2240791  61.1933374  53.8152742  77.2259903  60.0847530
  31.6351175  12.1615791  39.8212099  31.7845249  12.2983992  40.7567263
  32.3107028  12.6861656  39.3915272  74.3014812  20.3271937  47.6292944
  73.6465645  19.9857235  47.0204258  74.5498228  21.1758447  47.2627544
  23.7326598  58.1752968  57.3816299  24.3035316  57.5194740  56.9813442
  23.4094024  58.6933851  56.6445255   0.4870410  59.1889477  26.6082835
   1.2579259  58.9272738  27.1117663  -0.1959112  58.5757351  26.8799019
  70.9421158  30.4957342  47.5005007  70.0626755  30.4219627  47.8711414
  70.9020233  29.9932384  46.6867924  11.3704562  25.3234410  13.6552715
  12.0360374  25.5069423  12.9922771  10.5379272  25.4603124  13.2031739
  79.0850019  77.6452351   9.3494916  78.6574364  77.4735641   8.5104734
  80.0167561  77.6988840   9.1369402  24.4652295   1.2939802  13.1608057
  24.4704461   2.1812239  13.5199749  24.4644928   0.7242206  13.9299643
  56.6390038  16.8100834  61.8046665  56.1905575  17.6314819  62.0057392
  56.8043470  16.4120257  62.6593256  33.8645005  20.1533628  51.8242264
  34.1625643  19.3194807  52.1875858  33.4209347  20.5873203  52.5530338
  66.1484671  73.7947893  53.5199547  66.5492821  72.9533577  53.3018351
  66.6916990  74.1427088  54.2271185  65.9344721   7.9354948  29.6985126
  66.1380768   8.5691375  29.0105653  66.7775631   7.7533942  30.1135612
  31.5384197  38.6311460  55.9553671  31.8533850  39.1264892  56.7114544
  31.3886309  37.7481079  56.2930632  25.2694345  35.7845664  60.1842642
  24.9845815  35.6491899  61.0880136  24.5640445  35.4153013  59.6529388
  83.3524799  12.5102544  15.5928469  82.6286411  13.1010079  15.3847587
  84.1160202  13.0830359  15.6647229  70.2702522  17.6040816  67.8022814
  69.4568539  17.5614166  68.3050680  70.2276802  18.4460104  67.3488760
  30.4486394  37.1943069  30.6552100  30.7143998  36.9759583  31.5484786
  29.9929118  36.4125776  30.3430557   8.2229036  61.6490650  41.9671965
   8.4365016  62.5498343  42.2105408   7.8463304  61.2693691  42.7610826
  25.8679676  20.6194162  45.2442503  25.0725079  20.9153056  45.6868839
  26.5033627  20.4974723  45.9496832  14.4541442  46.8279505  14.1473925
  13.5788929  47.0084906  14.4902790  15.0370502  46.9660807  14.8939669
  74.7915602  22.3267174  41.4209223  75.0057602  21.4420223  41.1248398
  75.2991915  22.9007387  40.8473015  82.7099895  24.2880273  70.2607250
  82.0786285  24.0556479  70.9416151  82.5544548  23.6518288  69.5626640
  46.7245817   1.7839515  64.1418505  46.4272833   2.6192573  63.7811470
  47.6797676   1.8330403  64.1038370  38.5724926  29.1963911  63.7183094
  39.1326571  28.7015533  64.3162918  37.7322459  28.7385726  63.7431765
  17.5907981  27.6801538  53.8534880  16.8379676  28.2614446  53.7458849
  17.2068119  26.8177128  54.0115404  31.0216165  24.3971896  35.8796859
  31.7414045  23.8359594  35.5913115  30.5227351  23.8528633  36.4888334
  17.9933822  66.2315941  12.5102007  17.1765172  66.5972710  12.1707225
  17.9552531  65.3037977  12.2778893  35.7305121  19.9062312  41.6652822
  35.0513625  20.4605508  42.0496225  36.2707424  19.6389461  42.4088812
  19.5166802  31.4673352  18.2079577  18.7551260  31.2533426  18.7469149
  20.2661252  31.1680174  18.7227118  54.5087767   6.6697961  42.5081587
  53.9884138   6.2060499  43.1642008  53.8614702   7.0986009  41.9483805
  35.9811854  25.4198146  48.3858109  35.6184149  24.7686577  47.7852917
  36.5895319  24.9259543  48.9355803  47.4199295  80.8214378   2.1903160
  48.2221889  81.1873722   1.8178794  46.7255306  81.4038277   1.8823233
  10.7406425  49.5679808  70.4379511  11.1145258  50.3501177  70.0321054
  10.0162303  49.3225241  69.8624420  38.8727665  45.0255632  68.1314135
  39.0583372  45.6131744  68.8638830  38.0417871  44.6102571  68.3621168
  83.5228443   2.0425999  32.4463534  82.6177883   1.9121286  32.1633625
  83.8468266   1.1602292  32.6271653  61.2327242  13.4889150  66.8858624
  60.6963396  13.2130706  67.6291227  62.0172977  12.9433727  66.9411469
  78.5751009  12.3302507  23.1136203  78.9896584  11.7139614  22.5098300
  79.0429592  13.1535923  22.9741645  16.8920934  80.3980923  44.8850727
  16.9764996  79.5122576  44.5323563  17.3082805  80.3537846  45.7459164
  56.9584370   2.3389715  32.4026299  56.5916920   3.1743640  32.6921916
  57.6583910   2.1547113  33.0290079  28.9057565  72.7617359  36.4558101
  28.0986261  72.4371338  36.8550706  28.6645818  72.9528427  35.5494189
  73.3027506  79.9181652  36.2356901  74.2307854  79.8095226  36.4434791
  73.2913685  80.5406761  35.5086541  20.5630112  61.4149904  10.0381744
  20.0095129  60.7914352  10.5083323  19.9709642  62.1282768   9.7995692
  28.1196952   9.5519435  58.8640404  27.4796033   8.8475633  58.9658403
  28.3314514   9.8144567  59.7598505  64.1477251  33.0308223  25.6679559
  64.9758720  32.7187896  25.3032064  64.0121984  33.8850927  25.2579737
  47.1690083  29.0427923  13.3786011  46.8591785  29.1747880  12.4826026
  47.8731966  28.3997035  13.2962286  55.2169609  79.9928474  49.1525364
  54.8366594  80.7595253  48.7238121  54.4646215  79.4430304  49.3714333
  24.0136719  38.1008244  28.1706524  23.8212085  37.7612829  29.0446663
  23.6756015  37.4327183  27.5743484  64.0130186  16.2135267  28.9315701
  64.4616270  16.3118839  29.7713971  63.3090687  16.8615627  28.9587164
  18.9213860   6.0054821   2.2561619  17.9851615   5.8467877   2.1356076
  18.9691961   6.5983897   3.0060992  62.8711700  78.4106207   2.5854373
  63.5816908  78.7957287   3.0983478  62.6976204  77.5703526   3.0097717
  75.9207964  26.4320946  42.1284056  76.2200737  26.8495488  41.3206959
  76.7166376  26.0750437  42.5225925  39.2710185   5.9245783  25.3892016
  40.0621843   5.8469152  24.8560476  38.7736058   5.1297069  25.1968694
   5.0334591  31.1628246  29.1066694   4.5873991  30.3461242  29.3308568
   4.3932140  31.6511559  28.5891271   9.4478112  41.5456533  22.9029965
   9.8474008  40.9919357  22.2322083   9.7118837  42.4351454  22.6678348
  16.4123094  29.1633701  27.2426581  17.2289622  28.7824726  26.9198155
  16.5891635  30.1028061  27.2917819  26.4708209  28.6180782  49.7465754
  26.8816686  29.4771743  49.6496725  26.0268497  28.4693694  48.9117050
  80.6960964  80.3499699  35.5930591  79.9279451  79.8328018  35.8353710
  80.6798840  80.3690147  34.6361876  20.0474143  36.9332552  47.4472952
  20.6962514  37.6347756  47.5030899  19.3177104  37.3198509  46.9632435
  16.9746387  22.3698330  41.7010593  17.3622012  23.2440662  41.7427874
  17.4587154  21.9262385  41.0045481  35.0532985   3.8133702  50.2281380
  34.1711521   3.7371939  49.8644781  35.5695534   4.2057714  49.5240545
  26.6267872  80.8699226  61.2457323  27.2526073  81.2045383  61.8880844
  26.9858623  81.1373425  60.3996897  69.9793911  67.5625181  55.0431299
  70.1729822  67.8483915  55.9358978  69.2480564  68.1153488  54.7678900
  65.9202385  74.1131401  14.2247152  66.5903807  74.0691042  14.9067760
  65.0993872  74.2312431  14.7027147  23.1857681  26.3034725  41.3427353
  23.5364032  25.8669519  42.1190977  23.9602399  26.5927649  40.8603096
  16.6320288  31.9274902   7.5555450  16.2214291  31.3812327   8.2258010
  17.1343946  31.3130379   7.0204681  20.5347013   5.9155154  25.9559250
  20.3566504   6.5046382  26.6890430  20.5414581   6.4854056  25.1868916
  22.5082326  30.6833649  50.9956837  23.1927156  30.1100874  51.3407469
  22.8228331  31.5687704  51.1782122  10.0048959  72.8597355  23.9635515
  10.2381134  72.7586031  23.0407238   9.0875340  73.1326866  23.9502358
  35.2987552  29.5542598  30.8017588  34.7846031  29.6271992  31.6058493
  35.2020788  30.4068303  30.3774858   9.2827761  52.2513199  49.6758461
   8.4456921  51.9928360  50.0614738   9.3165475  53.2009459  49.7911644
  29.2720342  20.3128338  33.4265232  29.1055799  20.9638762  34.1081882
  29.8015332  20.7758307  32.7772975  49.2194271  10.7463503  23.8873124
  48.7018251  10.0810611  24.3408680  49.0170383  10.6167543  22.9607725
  86.0008335  80.4949284  33.6144900  86.6160583  81.0888863  34.0445375
  85.4475212  80.1683426  34.3240118  45.9858656   6.7119306  31.3490105
  45.7174873   7.3864007  30.7250762  46.5042210   7.1822816  32.0019364
  71.8553925  75.9061623   8.2186788  72.6919556  75.4827976   8.0259049
  71.4080477  75.2965021   8.8055563  57.2365284  15.3892756  25.5874777
  57.0167637  14.8492992  24.8282933  56.6461849  15.0849855  26.2767768
  51.6367865  15.6284654  30.0329471  52.3693705  15.7529116  30.6363249
  51.2951326  14.7602808  30.2468610  29.7174025  11.7049396  29.9407125
  30.1198292  11.7089689  30.8091998  30.1461482  12.4227667  29.4747376
  35.0612950   2.3024385  30.2442479  35.5280042   1.4963453  30.0237298
  35.3066063   2.4805000  31.1521840  59.7540140   1.2151556  67.5757313
  60.0201416   1.7558457  66.8320465  60.2690220   0.4133842  67.4853802
  11.6260362  75.8158064  24.3793201  10.9308434  75.7179356  25.0299788
  11.2012517  76.2474108  23.6380315  12.2938824  61.2001085  36.2349153
  11.7531252  61.9405890  35.9601450  11.9515610  60.9600210  37.0959640
  63.7869883  15.3280032  35.6457186  64.2880964  16.0720181  35.9797287
  64.1116667  14.5776892  36.1435580  69.0507746  76.7640066  32.9703283
  69.6678066  76.0449648  33.1062984  68.8025236  77.0368433  33.8535953
  22.7230716  18.6542821  54.4835472  23.1106567  17.8166938  54.7374249
  23.3664012  19.3084097  54.7564507  80.7783413  45.9159517  15.0895202
  80.6065464  45.6578112  15.9951055  80.7387066  46.8722582  15.1014364
  37.1338391   4.3458170  21.2473440  37.2484255   3.4307116  20.9910536
  37.9875231   4.6064025  21.5931082  61.8228674   4.2610300  41.8137836
  62.1546698   5.1543283  41.9040823  60.9357548   4.2977399  42.1714449
  10.2111340  28.7881875  48.2475185   9.9681920  29.5750308  48.7354565
  10.0979149  28.0733752  48.8739824  52.3123980  70.4920149  68.9721966
  53.1085634  70.1805162  68.5417080  51.9492006  71.1375809  68.3659220
  70.7749414  60.1509523  45.2125978  70.4682922  61.0171747  45.4806566
  70.3284836  59.9851799  44.3822813  83.8506413  78.3155823  40.3429127
  83.1367874  78.9519596  40.3020859  83.4121227  77.4651861  40.3704357
  40.1351929   9.7444838  13.6799657  40.0040483   9.8983473  12.7443588
  40.6738949  10.4804218  13.9705241  79.3875694  22.8850818  17.7023542
  80.1707172  22.3347354  17.7083027  78.8662004  22.5677180  18.4397066
  39.5454717  19.8611617  24.4113350  40.4103374  20.2628994  24.3285775
  39.1450429  19.9749839  23.5493994   2.1116060  10.6835949  43.7796402
   2.9404905  10.9527767  43.3837605   1.6686210  11.5055895  43.9901686
  21.3398886  20.5087590  68.5249329  20.9349036  21.0943460  67.8851604
  22.0345235  21.0330582  68.9234591  46.2905598  79.1281033  69.8894215
  45.4220009  79.1723967  69.4895792  46.7370939  78.4267616  69.4151211
  13.5782540  32.5256252  41.2900162  13.3253491  31.8210530  41.8865442
  14.2157996  33.0407453  41.7844009  82.3687744  39.0084338  47.0489836
  83.2048416  38.8712668  47.4944067  82.5874043  38.9870930  46.1173296
  70.7278156  75.2593994  20.5976224  69.9973583  74.7815800  20.9904981
  71.3605833  74.5801067  20.3643942  80.9941864  10.2335203  63.9228344
  80.9602737  10.4656017  62.9948187  80.4901028   9.4222146  63.9854097
   2.4316478  79.7410440   5.8299035   3.2188433  80.1795387   5.5069846
   1.7727534  79.9040413   5.1549792  16.9265079  77.3967171  16.8103778
  16.2367022  77.9801559  16.4941549  16.5117061  76.5349865  16.8503046
   8.4874529  50.3080797  58.0049181   9.3855733  50.1293135  58.2835817
   8.1775075  49.4760132  57.6473761  79.6758175  39.8660469  42.6826620
  79.3013477  40.5067492  43.2872295  79.9398088  39.1351557  43.2415390
  15.0810885  24.3776131  23.5899591  15.4178643  25.2161455  23.2742405
  15.8063793  23.7656856  23.4645343  24.2256999  22.9028344  54.4279861
  23.4845328  22.6931357  53.8597155  23.8620830  22.8824234  55.3131962
   0.2652772  69.4852829  57.8214073  -0.5785147  69.9341059  57.8743315
   0.9050878  70.1895952  57.7174234  31.0010433  23.1204295  46.0185242
  30.5943274  23.9099908  46.3754654  31.1991858  23.3433175  45.1089668
  37.7861691   3.8183516  54.0903568  37.8483391   3.2146320  54.8305511
  38.2337356   3.3668441  53.3747721  26.3878226   0.9601431  41.5413666
  27.1690679   0.4115167  41.6113520  26.7251849   1.8556577  41.5196466
  33.2054687   6.9880551  19.7578502  33.9179659   7.6186758  19.8622441
  32.4192214   7.5271249  19.6715415  72.4406528  38.1614661  26.4372396
  73.0692720  37.4447036  26.3516879  71.8057775  38.0080390  25.7375073
   3.7283903   6.7390931  39.5765948   3.1687728   7.3056602  40.1076889
   3.1174985   6.2343091  39.0397191  35.9168744  79.0111017  17.8818548
  35.4683065  78.8899660  17.0449889  35.6792259  79.8972082  18.1549263
  17.9148901  39.5316577  59.0477753  18.8052428  39.8607898  58.9245796
  17.6813662  39.7994971  59.9365711  19.5754647   9.8553902  14.7954726
  18.8517296   9.3434560  15.1565313  20.2347684   9.8605585  15.4893911
  26.6008139  17.5886226  43.3355522  26.5141726  18.5239649  43.5195589
  25.8390069  17.3792624  42.7951336  31.8824553  17.9961836  11.4730525
  31.7168427  18.8966537  11.1938429  32.8136659  17.8589308  11.2991619
  35.8014750   3.9706108  61.4659452  36.5578747   4.5161691  61.6814947
  35.5991149   3.5093561  62.2799015  54.4048166  21.6288805  60.2028275
  53.5485172  21.5755320  60.6272459  54.2268324  21.4451265  59.2804480
  47.7247286  39.5529079   4.6473759  48.5943413  39.2166376   4.8640013
  47.3571062  38.9001656   4.0515450  42.3827410   5.6261355  46.3905048
  42.5747442   6.5341151  46.6248989  42.9370451   5.1062018  46.9724417
   2.7046981  58.1145144  49.4055319   3.3290091  58.2883310  48.7010765
   1.9447252  58.6554575  49.1909361  82.9759026  14.4404769  40.3884506
  83.8009357  14.6469903  39.9492311  83.0366611  14.8854363  41.2337589
  59.9679852  76.9840145   5.4899400  59.2635155  76.5638018   5.9832722
  60.0113058  76.4933920   4.6691814  76.8946409  20.5222368  14.6598172
  77.5151014  20.3403664  15.3656387  76.3128233  19.7622144  14.6506202
   1.4760187  73.6557245  11.3885081   1.8713206  73.3534288  12.2061789
   1.4444844  72.8754854  10.8349144  24.1144371  28.0846047  65.1973677
  23.6803603  28.1404614  66.0486507  24.8596668  27.5026226  65.3462410
  11.5876138  37.4705458  41.3732100  11.8766463  38.3031321  41.7466974
  10.6318200  37.5149989  41.3999462  21.0836339  14.1414821  50.7078171
  21.0692430  14.1687179  51.6645193  21.7358041  13.4732997  50.4970121
  21.3595057  13.2716012  15.6714630  21.7377090  14.1477215  15.7463527
  21.4357615  13.0564666  14.7418749  86.8551866  65.4560375  35.4698229
  86.6989326  65.6548929  36.3930106  86.0425574  65.7060480  35.0300956
  25.6404710   4.9024519  24.3335867  24.6861863   4.8327193  24.3069530
  25.8074307   5.7408738  24.7641730  21.5846515  48.1939650  14.5862615
  21.8774199  47.2827005  14.5967901  21.5718865  48.4307337  13.6588943
  56.4267778  26.9630885  54.7984457  56.0332584  27.7114773  55.2470970
  56.3647223  27.1815586  53.8685799  21.0755301  10.4931545  46.8690443
  21.6500235  10.1352894  47.5458908  21.1686206  11.4421058  46.9530487
  25.1036072  20.0450397  55.2637911  24.5920587  20.8173728  55.5047369
  25.5023432  19.7562122  56.0846567  58.3786821  15.1569915   1.4350268
  57.9429531  14.7076046   2.1591964  58.3992958  14.5103550   0.7295708
   1.4605175  78.8645029  36.1360312   1.9088164  79.6299314  35.7763338
   1.1516540  79.1499519  36.9958878  25.8061790  77.9170275  37.8417826
  25.9479046  77.0308685  37.5088120  26.6705513  78.2029343  38.1373358
  50.5305624   9.6878058  55.5610800  51.3835430   9.6299005  55.9915447
  50.3508615  10.6266451  55.5108643  44.2009497  20.5154371  47.4715281
  43.4739828  20.0972342  47.9328966  44.9513769  19.9458194  47.6407194
  15.3624845  79.3353319  31.9471049  14.8618186  79.7777224  32.6325655
  15.8299148  78.6366844  32.4049592  46.8487024  26.1562300  16.4490163
  46.3824654  25.3389454  16.2732267  47.5103569  25.9194994  17.0989430
   5.5358803  68.3108950   1.1610402   6.4018607  68.5368633   0.8215567
   5.3402305  68.9999819   1.7959526  18.8377488  15.6395435  17.2910154
  18.6630332  14.7491431  17.5958014  19.7358465  15.8165848  17.5708508
  36.6234112   2.4081588  59.3746185  36.1129093   2.7647144  60.1015854
  36.0090971   1.8445663  58.9042854  13.1928623  57.1704245  66.8646765
  12.5698614  56.9120216  66.1854649  13.1355870  56.4745903  67.5194788
  51.2559223  21.9952655  18.7934923  51.4400911  21.5905285  19.6411371
  52.0226288  22.5403833  18.6167288  10.2018571  17.7716279  20.3375125
  10.2362311  16.9219553  20.7769513  10.5946052  18.3807266  20.9627962
   6.2127537  76.7076015  28.8970256   7.0270050  76.3059855  29.2002273
   5.5606711  76.4476633  29.5477557  39.8046422  37.2989535   2.1418351
  39.4413996  36.4659572   1.8411610  40.2746105  37.6433611   1.3823994
  79.4915533  21.8389392  51.8962240  79.2048550  22.2319961  52.7205706
  79.3291855  22.5156283  51.2389898  59.4474602  35.5480003   3.0848825
  60.1911163  35.3217840   3.6434805  59.7945213  35.5024576   2.1939799
  65.7948256  22.0374870  38.1982684  66.5896845  22.5197434  37.9705334
  65.0951719  22.4951649  37.7321720  67.4553394  14.7876096  38.2071710
  66.8253946  14.2986786  38.7366509  67.3263788  14.4591057  37.3174024
  54.4563818  20.1950788  29.1470671  54.9507856  19.4494677  28.8066840
  54.9069166  20.4311204  29.9579525  41.0472584  75.0887060   3.4408936
  41.7420292  75.0567913   2.7832437  41.5061188  75.2420998   4.2668170
  38.1952405  30.4811811  50.6339216  38.4599996  31.3481712  50.3265762
  37.8784204  30.0350785  49.8485231  10.3175819  41.8362331  66.3103962
  10.2558589  42.6982546  66.7219114  10.3882647  42.0222998  65.3741217
  64.6714783  38.1008911  67.3514462  65.5471516  38.3232951  67.6676226
  64.1298199  38.8501024  67.5994873   7.3072571  80.3644276  32.8375673
   7.6495850  79.7705364  32.1694875   7.8217441  80.1666832  33.6201477
  28.6630845   1.3798209  29.1147137  28.1492996   0.7025053  28.6748266
  28.6524534   1.1268531  30.0378203  29.9947214   6.8654573  65.9379196
  29.1457629   7.2237456  65.6788206  29.7849870   6.0289264  66.3532019
  48.2177353  67.2207403  60.4970312  48.6001492  67.3619652  61.3630819
  48.8052320  67.6811886  59.8978138  53.5662889  40.2230501  61.2592316
  54.4714069  39.9987268  61.0431957  53.0823374  39.4056177  61.1416578
  37.6555157  27.4120760  51.2876272  37.6432824  27.6619077  50.3636885
  36.8216968  26.9625926  51.4252615  10.1178217  35.7525873  18.4216213
  10.9540606  36.2173271  18.3907294   9.7645247  35.8361173  17.5359380
   2.6097018  68.2728529  48.4999180   2.8253004  67.4250841  48.8885546
   1.6548795  68.2695866  48.4325743  22.6538682  30.6673265  34.4714665
  22.8114176  30.4482865  35.3898525  22.6812172  29.8256636  34.0163994
  28.7685680   5.9931839  50.8169317  29.5799613   5.8716488  51.3099813
  28.0744362   5.8784264  51.4659643   6.2249726  65.4035950  48.3173227
   6.3651329  66.1246824  48.9310169   6.4326006  64.6165895  48.8210535
  10.2484620  13.9587545  47.0596409  10.6069398  13.8409078  47.9393196
  10.8162463  13.4320760  46.4970875  35.0939631  45.4709959  40.1405668
  34.3916631  46.1208725  40.1146793  35.8962965  45.9808064  40.0284004
  27.8075433  57.7194118  45.0880194  27.4193978  58.2291698  44.3768835
  28.0513668  56.8879271  44.6813011   2.1445565  76.7405939  61.4507341
   2.9977569  76.7315769  61.8845558   2.3488146  76.8580532  60.5229855
  60.8960438  21.0202551   5.0303948  60.1997662  20.3656769   4.9759665
  60.5398512  21.7020082   5.6001067  14.0532887  37.8774858  32.9923320
  14.9683964  37.8411317  33.2707000  13.6059678  38.3416939  33.6998963
  43.1174374  75.1944542  34.5689511  43.0014992  76.0480833  34.1516829
  42.4800491  74.6272373  34.1350937  44.2974329   5.1485431  35.4764771
  43.8854980   4.4351506  34.9890208  44.0971088   5.9337234  34.9669743
  46.3499784   0.4617339  42.4263573  45.8548212   0.3670125  43.2400370
  47.2669077   0.4436734  42.7004862  24.6113920  80.4113579  31.8841052
  24.9259281  79.6261215  31.4361072  25.2799010  81.0728264  31.7058086
   7.4587965  62.9857779  14.3050516   6.8028545  62.5422001  13.7672698
   6.9906402  63.7254572  14.6922684  85.2246189  27.1719432  43.6137867
  84.6602249  26.4276052  43.4048605  85.9404182  26.7938256  44.1245556
  11.5716827  12.1943045  31.6490102  11.5962052  13.1505787  31.6832066
  12.4152946  11.9464564  31.2706971  42.8569174  10.2492380  64.5135927
  43.3620739  10.4013228  63.7148952  42.1497679   9.6641040  64.2419624
  70.4943705  64.5499420  55.3476906  69.7898245  64.1268253  55.8384180
  70.4135180  65.4786062  55.5651283  46.1049700  31.0855389  24.8616862
  46.9921350  30.7934761  24.6522379  45.5994415  30.9029245  24.0696478
   8.5589910  29.8451376  42.7673864   8.4075832  28.9103127  42.9067087
   9.3688858  29.8833847  42.2586250  57.3282719  22.3786712  34.9302745
  58.0406189  22.1776485  34.3233323  56.8921566  21.5388536  35.0743032
  21.8185830  14.2008150  53.4445524  22.4053645  14.8379350  53.0371237
  22.2682810  13.3619392  53.3431149  81.7496967  78.7145376  47.8591728
  82.1962452  78.7353706  48.7055683  80.8508205  78.4609175  48.0687857
  18.1073010  44.3817854  37.1331072  18.8170218  44.5693398  37.7473974
  18.5257518  43.8898134  36.4266419  10.2854335  39.4656920  33.1350946
  10.7461858  38.6492705  33.3284807   9.7823787  39.6504664  33.9282036
  40.4782248  14.8234022  20.3198814  41.2105942  15.3340113  20.6650567
  40.7213879  14.6389389  19.4126451   3.4457058  78.4165764  41.0139561
   3.3524436  78.3826113  41.9659948   2.6193190  78.7882519  40.7054520
   0.0908719  63.6362982  14.1381919   0.5597626  64.0267563  14.8756981
   0.7805197  63.2863235  13.5741544  47.0734835   9.0330166  40.5515194
  47.9114962   8.9887941  40.0910711  47.1819735   8.4499788  41.3028717
  62.1762562  28.9154291  30.1201534  62.0181179  28.9985299  31.0605359
  62.2592163  27.9731631  29.9735761   1.4271766  80.8674145  39.8971462
   1.1301421  81.0410500  40.7903719   0.6810456  80.4414368  39.4751692
  56.5080643  77.1583652  31.8290973  56.5638256  77.9901171  32.2995329
  57.4137926  76.9531918  31.5971684  24.1544533  14.6995080  31.6126943
  24.5701718  15.4332805  32.0654488  24.3718791  14.8331213  30.6901407
   6.3113976   0.9805154  20.6784058   5.8795226   1.8059340  20.8984065
   6.7324430   1.1478003  19.8352170  75.2974176  80.3363132  11.8452132
  76.1020994  80.8039474  11.6215134  74.7564745  80.9893131  12.2892857
  31.5909123  17.2667968  63.2395077  31.8919802  18.1638575  63.0950403
  30.8394742  17.1692371  62.6546526  54.2526531  81.2736702  59.7523594
  54.1891909  81.0270500  60.6750631  54.6832085  80.5280113  59.3342066
  50.8281612  25.4744649  52.9265499  51.2935686  25.8213711  52.1654415
  50.5954790  26.2490416  53.4385300  27.9439282  42.3100615  67.7385759
  27.6233220  43.0323124  68.2787514  28.1071687  42.7055120  66.8823004
  19.4224656   4.1724807   5.6185144  20.3339410   4.3667316   5.8369434
  19.2098093   4.7834235   4.9129945  23.1432748  68.0046892  57.1540070
  23.0066824  68.3433294  58.0388212  23.3764005  67.0852852  57.2827673
  47.1828747   2.8093705  55.9436655  47.9660606   3.3544925  56.0191154
  47.2566843   2.1830854  56.6637707  11.5679073  22.9709673  48.0685472
  11.2872469  22.0562339  48.0415869  10.8495486  23.4540462  47.6601028
  49.1946316  39.4853544  40.3538418  48.8325167  40.0116444  41.0666704
  49.3595934  40.1144743  39.6515369  31.6435075  57.3745584  45.5944252
  30.7781792  57.7630186  45.7230282  32.0816541  57.9637098  44.9802923
  71.7109776  20.0958848  61.8236780  72.6129198  20.2050018  61.5223026
  71.5320873  20.8851767  62.3347998  55.0007296  35.7076955  56.3468027
  55.7009459  36.2295985  55.9549522  54.1962624  36.1675501  56.1068153
  76.4649296  61.2297106   0.2416728  76.0100985  61.7657518   0.8912993
  77.1994257  60.8453131   0.7202023  25.1785493   7.0537525  44.0627527
  24.8056149   6.5690529  43.3264017  25.6636930   6.3961893  44.5612288
  26.0252976  35.7547998  50.9879398  26.9499373  35.5506420  50.8479643
  26.0281253  36.6386819  51.3553286  25.7895231  30.7465601  48.0533218
  25.5694890  31.6693735  48.1807327  26.7445111  30.7177711  48.1116676
  52.7601719  61.6067123  15.6258082  53.4973431  62.2121620  15.7048011
  52.0032263  62.1704817  15.4663455  57.0144588  -0.1040173  58.9447737
  56.5134150   0.6596374  58.6583996  57.7921444  -0.1032639  58.3867121
  52.8128624   8.0576181  39.8615074  52.6844501   8.5734540  40.6575346
  53.6234808   8.3984494  39.4834042  55.6081820  25.6292057  62.3942041
  55.2725935  24.7855902  62.6973963  54.9049330  26.2496209  62.5859213
  41.0140705  15.0562644  44.0901041  41.6110325  14.3250132  43.9315557
  40.2981186  14.9198496  43.4695911  63.1070662  20.9785843  44.8720932
  62.4656534  20.8137703  45.5632210  62.8018284  20.4539037  44.1319752
  24.1077137  38.9024448   4.7752243  23.3289433  39.2013669   4.3057629
  23.8140392  38.7902975   5.6793314  34.9967790  48.1518602  42.8671265
  35.0440884  47.2667599  43.2285070  35.8429146  48.2811785  42.4386835
  37.7627659  10.5524647  23.8695407  38.5021806  11.1565006  23.8014174
  38.1563139   9.6829540  23.7967134  57.6025391  24.7166038  52.0593882
  58.3127308  24.5441175  52.6775360  57.0963860  23.9043331  52.0433760
  31.9902039  76.5686607   7.2144705  31.0898232  76.2438154   7.2192270
  32.0259786  77.1859550   7.9451579  47.4000406  29.2630672  44.8757267
  47.7694130  29.0916800  44.0094566  46.7143059  29.9123716  44.7195196
  22.1659827  42.5616074  36.4638400  22.2935796  42.6210785  35.5170488
  21.6830134  41.7448092  36.5895939  79.1192913  31.4658737  14.1081583
  78.7560797  31.4159775  14.9923623  79.4976759  30.5999994  13.9554429
  48.0306816  27.7268815  52.0908308  47.6447296  28.3432627  51.4684582
  48.9583683  27.6993012  51.8565941  72.1153307  75.7530594  -0.1659284
  71.5095425  75.3641987   0.4649726  72.5863409  76.4198112   0.3339019
   9.7359931  68.4269524   3.0303305  10.1648116  67.9423618   2.3249835
  10.1883864  68.1437969   3.8249344  18.9646852  13.8857520  54.3186426
  19.2296147  13.1438708  53.7748957  19.7792530  14.3566096  54.4947243
  61.9352579  34.5433497  52.8248453  62.4676847  34.2181349  52.0989084
  61.5878630  35.3785181  52.5117254  42.4020529  35.3180623  58.4002876
  42.8366184  34.7683525  57.7482128  42.5534678  36.2135291  58.0978918
  35.8378696   6.8087113  37.7737379  36.2809968   7.6568991  37.7948880
  36.2395835   6.3107908  38.4857297  45.5618954  31.9682646  39.4364572
  45.8543730  31.9793320  38.5251045  46.1683941  31.3718557  39.8754168
  18.2886958  76.0452986   9.2147404  18.2944942  75.2236319   9.7057194
  19.1841269  76.1358786   8.8888121  45.2140474  29.0300775  43.0051470
  45.2881908  29.7942138  43.5768414  45.4717302  29.3514729  42.1411228
  31.0467577  12.6547039  67.2076368  30.7692671  13.1441808  67.9820013
  31.3972712  13.3207142  66.6161919  42.1841526  26.4650273  64.5926142
  42.4766445  25.9355330  65.3344488  42.9854202  26.8616939  64.2507744
  71.2665272  60.0194979  20.8192253  72.1641588  60.3394508  20.7291174
  71.2380791  59.6287394  21.6925693  54.4613886  21.3429308   2.3628920
  53.5507488  21.0696697   2.4737859  54.4053459  22.2607183   2.0968881
  69.4125557  22.6376176  55.6124592  69.0423822  22.7800441  56.4836168
  68.7139750  22.2026563  55.1235580  68.0242157  18.4708107  53.8212442
  68.5351658  18.2482207  53.0430317  68.1492805  17.7270734  54.4106865
  34.4176173  20.3829455  44.9157143  34.1965795  20.4201484  45.8463001
  35.0537610  21.0874438  44.7922897  62.4266672  23.6236978  11.4322090
  62.7396345  23.2393432  12.2510839  62.2398758  24.5363975  11.6520226
  70.3005362  17.6626468  39.2629504  70.7912064  18.1261182  38.5842252
  70.6697416  16.7795205  39.2645979  71.3636541  16.3090456  27.4664521
  72.2659111  15.9945548  27.5234985  71.2087822  16.7456591  28.3040786
  19.3388462  76.3541842  49.3744135  19.9161541  75.9727287  50.0358057
  19.7824883  76.1853981  48.5431957  48.5724163  13.9691961  37.3147607
  47.6367664  13.9664674  37.1128201  48.6221170  14.2893958  38.2154465
   1.7068522  16.5475106  51.5064335   2.6624936  16.5046787  51.5402889
   1.4798780  16.1657035  50.6585312  12.5360668  64.7455120  15.2067387
  12.9806507  64.8245049  16.0507393  11.6177166  64.5978022  15.4326761
  39.2641234  44.2342854  32.0407104  40.0440931  44.5731306  32.4801016
  38.5615039  44.8259878  32.3098683  12.0785654   8.6200553  32.6013017
  11.2896585   8.9452112  32.1675611  12.6025403   8.2432830  31.8943882
  55.9219742  17.2970414  36.8163586  55.6095028  17.4116719  37.7138305
  56.7475367  17.7805591  36.7865849  48.5241890  13.0909514  58.1251287
  49.2653799  12.9673409  57.5321817  48.8186455  13.7631071  58.7397289
  60.4345989  17.7557647  47.9004383  60.7372093  18.4579670  47.3246145
  60.3150654  17.0044351  47.3195314  46.4892340  18.8756907  48.1837988
  46.7499638  19.3874085  48.9495659  46.5004492  17.9679191  48.4872055
  74.6461535  15.2375162  52.9361677  75.5517149  15.1742208  52.6325417
  74.3685961  14.3289030  53.0528450  65.2167034   1.7341080  37.7337003
  64.9448776   2.4036381  37.1059489  66.0780287   2.0235522  38.0346513
  33.8423538  22.8743100  58.1871557  34.2824221  23.6797476  58.4588909
  33.2477140  22.6709771  58.9091635  49.8008537  19.8400736  48.8263369
  50.2193213  20.4884768  48.2600403  49.7620630  19.0459812  48.2932854
  53.4167051  46.2135410   4.7191963  53.4360790  47.0252848   4.2123178
  53.9388800  46.4050913   5.4982156  48.5639095  37.5849605  54.7490978
  49.4507742  37.9450417  54.7423983  48.2341862  37.7439022  53.8646460
  53.4130716  16.0017872  47.7291727  53.6189127  16.8026578  48.2113218
  53.8104963  16.1317492  46.8681288   2.3998581  47.8121519   3.2864192
   2.3274276  47.6787138   2.3413375   1.8900570  47.0979834   3.6689085
  26.0999656  15.9020853  33.0968738  26.0317993  16.2314212  33.9930463
  26.8853664  15.3549540  33.1018591  46.4690733  22.0383716   0.1797778
  46.4353275  22.6704431   0.8978177  47.3007631  22.2181153  -0.2586484
  30.9028745  27.3198366  57.8829098  31.1156344  26.4773393  58.2843542
  30.0938106  27.1566439  57.3981237  82.9361057  52.3287344  42.9246569
  83.4249592  52.8267813  42.2695208  82.1127987  52.8068399  43.0237293
  44.4652987  19.0061200  36.1063981  44.1583395  19.7892952  35.6496215
  45.4176855  19.0994692  36.1283493  29.0019274  27.4141026  39.7405457
  29.0252209  26.4629745  39.8456287  29.7333384  27.7315688  40.2701521
  39.5671725  27.5064754  57.3942566  40.3656101  27.2008777  56.9637489
  39.1223121  26.7052150  57.6705074  63.9131069  78.5920477  26.0780454
  64.6365881  78.1447697  26.5170741  63.6508417  77.9937077  25.3784466
  32.6130605   6.6137415  66.8849659  33.0925083   7.3300397  66.4687014
  31.6925097   6.8063146  66.7068195  71.4430523   9.4842964  53.1021166
  70.8747244   9.7498477  52.3791218  70.8619690   9.4455749  53.8617659
  79.5786953  18.0391026  45.5268908  80.2653599  18.2949150  44.9110270
  79.8344946  17.1649480  45.8212566   2.2683610  63.2764292  39.6644402
   2.4233048  63.3529091  38.7229633   1.3578957  62.9894924  39.7348022
  45.3652191  22.4165893  53.1486702  46.1060190  22.8738356  52.7507067
  44.8829746  22.0510077  52.4070358  44.0291405  41.1924648  51.1175871
  44.0090799  41.8784428  51.7848730  44.5208979  40.4782820  51.5229893
  48.9782381  66.4040279  21.5837812  49.3698835  65.6040716  21.9343686
  49.5991802  67.0953131  21.8135357  62.4665785  32.5300074  50.6021738
  62.9309130  31.9139361  50.0355339  62.0187473  31.9763160  51.2417889
  78.5495281  36.2748170  55.9900713  78.6549520  35.3266740  56.0684490
  79.2825270  36.6391397  56.4862680  57.7821493  78.9455223  28.2084990
  57.5152302  79.2914009  27.3568201  57.2471666  78.1606150  28.3265901
  32.1717024  33.6370587   6.7726058  31.9373107  33.1120276   6.0073394
  31.4064264  34.1910458   6.9265068  54.7359276  52.1041203  46.6972637
  54.3395376  52.5639486  47.4373102  55.6697416  52.0752716  46.9055748
  80.8537102   1.5532918  31.8938231  80.4848480   2.2116035  32.4827194
  80.2162170   0.8393253  31.9033432  82.3368931  34.1139841  64.0449905
  82.6674938  33.2433796  64.2663193  83.0043507  34.4838691  63.4671307
  66.5029383  45.8799648  48.0830765  67.3746967  45.4884386  48.0284834
  66.5995073  46.7381096  47.6701736  85.4714680  73.3404827  65.4842615
  84.6665764  72.8247643  65.4350615  85.6561661  73.4073973  66.4210844
  79.9071980  51.8419218  50.7041931  79.3188858  51.4179039  50.0794268
  80.6790257  52.0731592  50.1874256  34.2511725   1.4779910  57.6778412
  33.7787580   2.3082532  57.6168346  33.7780404   0.8894312  57.0896435
  84.1815853  63.6803102  37.7084565  84.5355892  64.5668221  37.7793121
  83.9840698  63.5749578  36.7778015  61.7123079  70.6980705  16.5457368
  61.5479231  69.9928284  15.9197617  62.5201845  70.4406071  16.9898975
   6.8838412  56.3182640  10.3258169   6.3886654  57.0465994  10.7007313
   7.1672499  55.8062601  11.0832882  34.1379547  45.9992838  32.2143078
  33.9691043  45.3130388  31.5687180  33.5476637  46.7111158  31.9671512
  69.5354891  81.5025616  22.1176934  69.1485453  80.6471729  21.9310999
  68.8009930  82.1141624  22.0657969  66.3124418  56.9225025  14.7239637
  66.3538456  57.8736973  14.8226476  66.2794590  56.7810726  13.7778449
  75.2673483  53.0275393  55.3607988  75.7957792  53.0657434  56.1579990
  75.6772184  53.6604691  54.7711945  72.9353952  44.4084501  47.3825407
  72.8524733  43.6555386  47.9677582  73.8213396  44.3389225  47.0268726
  56.8729687  51.6149092  63.5221529  56.0451031  51.4626837  63.0664206
  57.2562122  50.7432747  63.6201715  57.7218390  74.3808460  35.8637047
  57.4256754  74.6806717  36.7231369  57.0585871  74.7060204  35.2549434
  54.1664457  74.3226814  46.7295837  54.9841022  73.8976717  46.9885063
  54.3965244  74.8308897  45.9517527  79.7551823  43.7795448  31.4004016
  80.3436089  44.4306803  31.0182834  78.8772154  44.0960693  31.1877561
  30.1013422   1.3099489   1.9850801  29.6963096   1.8896689   2.6301420
  29.4056702   0.6991468   1.7417899  24.8493886  63.5584497  11.6734278
  25.6506896  64.0290213  11.9030261  24.3851137  63.4564590  12.5042570
  64.0777969  56.0249519  38.5117602  63.3783579  55.3866005  38.3720064
  64.7810745  55.7414055  37.9276061  74.6915150  53.7413168  23.7412882
  74.9935436  52.9439259  23.3063483  74.0214396  54.0943050  23.1559420
   8.7756503  71.0186100   2.6924887   9.6586323  71.2586117   2.9735115
   8.6866689  70.0987530   2.9418445  86.4510567  44.1836023  55.9698248
  86.5898933  45.1124954  55.7851315  86.2438222  44.1534758  56.9038343
  85.5743694  59.8391199  57.7437544  85.2919388  59.2329979  58.4286547
  84.8593903  60.4717064  57.6740122  67.1297503  50.8202457  66.4536238
  67.7329969  51.4952040  66.7646885  67.6112127  50.0001287  66.5624285
  61.2100697  37.1053696  54.2950821  60.4606628  37.3929381  53.7736130
  61.6102505  37.9169631  54.6071815  78.0177116   2.5808364  67.2903681
  77.9645872   3.3388510  66.7082834  78.0792475   2.9569629  68.1684208
  58.4626579  72.5471163  57.2031736  58.6378336  72.8879404  56.3260317
  58.1300879  73.3006048  57.6909065  52.2485018  48.7725449  54.0758228
  52.8590250  48.0535221  53.9130211  51.7519188  48.4954071  54.8457813
  46.4349079  58.3308983  34.8602653  47.0052671  58.5642147  35.5927157
  45.5624533  58.2632542  35.2481842  75.5167055  66.9395447  42.6834536
  75.6317043  67.8693056  42.8797865  76.3358593  66.6808033  42.2612286
  72.6716518  50.3741693  66.6802406  72.9174519  50.5348063  65.7691908
  72.1924925  49.5458698  66.6565609  62.0215034  51.8912840  14.8729050
  62.8745413  51.6385365  15.2260005  61.5600920  51.0624409  14.7450411
  63.9371729  24.7426009  68.6075401  63.2392168  25.3762221  68.7737083
  63.5245705  23.8900280  68.7457609  54.6437359  74.0917063  39.8031735
  53.9272451  73.4636593  39.7113609  54.8734474  74.0589190  40.7318211
  80.7881546  69.5855999  52.7605963  80.3329372  68.7722969  52.9786539
  80.5363846  70.1945543  53.4548664  66.3444757  48.4924221  69.6557426
  66.1133099  49.1390610  70.3225660  65.5602217  48.4182644  69.1119719
  72.4062061  50.1173973  37.3553896  72.2059107  50.7744408  38.0220294
  71.5722609  49.9653006  36.9108272  61.7227221  68.9034748  69.1274643
  62.2656202  69.6304703  69.4323683  61.9392920  68.8156986  68.1992245
  16.8846333  58.9718819  44.9604464  16.4792418  58.7746429  45.8048344
  17.8228247  59.0056038  45.1472425  80.9297848  32.7311778  41.7198992
  81.3839817  32.7318311  40.8773232  80.0167751  32.5463581  41.4996958
  31.0105944   9.6287763   6.4516544  30.1635027   9.2682719   6.1895370
  30.8223867  10.5381012   6.6838968  11.7005980  40.4286098  60.3399181
  12.5249767  40.8222723  60.6256819  11.1143255  40.5296135  61.0897970
  31.5956640  72.8137541  21.7082715  32.4469423  72.8187656  22.1459126
  31.3368344  71.8922663  21.6984320   2.0260324  42.2271156  59.1940308
   2.6100764  42.9577589  59.3972206   1.1498044  42.5596142  59.3887138
  19.5925283   2.7796382  64.5400858  20.3558230   2.6526764  63.9766169
  18.8858306   2.3119561  64.0950203  69.6575451  55.4922152  56.9444227
  69.0941429  56.1981726  57.2613382  70.4773617  55.6058693  57.4252701
   3.3504650  49.8089600  32.3098540   3.4495050  49.5475101  33.2253122
   2.4652311  50.1694012  32.2581315  79.6401739  62.6599598   1.6209656
  79.1975164  62.0549822   2.2161858  79.1649723  63.4848547   1.7208220
  20.1905847   2.9734775  57.8003025  20.5151415   2.7979770  58.6835289
  20.0960207   2.1075809  57.4034214  84.2887974  32.1615601  66.4794540
  85.0596142  32.5483608  66.0641718  84.3408871  32.4450326  67.3922300
   2.9413536  50.2670527   6.7081273   3.5774410  50.8088446   6.2411296
   2.1426734  50.3300905   6.1843258  17.9624033  39.6266770  69.8959208
  18.4505033  39.5702624  69.0744543  17.4949992  40.4601288  69.8400450
  16.8872297  77.6313972   5.5583256  16.4913797  78.4985876   5.6449902
  16.6864336  77.1927452   6.3850653  44.7750759  40.9180450  68.8028955
  45.5595541  41.3917398  68.5264158  45.1082134  40.1093006  69.1917181
  49.6071768  51.2244320  61.4636469  48.7603283  51.4611149  61.0854244
  49.8639965  50.4290819  60.9970665  54.9146652  52.7860546  54.9551964
  55.1226711  52.9953480  55.8657789  53.9777517  52.9654455  54.8762131
  63.3495188  56.3342762  62.1462297  62.9615831  55.5193138  62.4649239
  63.1180286  56.9849586  62.8089952  39.4571781  42.0969248  25.4045463
  40.4123354  42.0378399  25.4247975  39.2203021  41.8421841  24.5127892
   8.5729140  76.7286444  38.2435417   7.6621664  76.9025230  38.4813166
   8.8233298  75.9805155  38.7855983  57.7307129  52.8087091  50.5237246
  58.0911493  53.5062981  49.9762821  58.4918928  52.2881269  50.7803106
  85.2901077  19.5392001  30.8771825  85.2353191  19.2400360  31.7847776
  85.4766560  18.7462819  30.3744769  56.6668224  63.8336706  40.7750893
  57.6160908  63.8856649  40.6636477  56.3190460  64.4976377  40.1797533
  55.2900028  54.9635077  36.4238977  55.7846880  55.5620766  35.8642268
  54.4446135  54.8688316  35.9850478  85.8656597  67.9200554  24.2034316
  85.5480576  68.1767035  23.3376980  85.5155563  67.0390272  24.3355107
  62.2611141  81.1683846  57.7361917  63.0772495  80.7881069  57.4113178
  62.1424770  80.7772160  58.6017227  13.4023643  50.3835058  38.7450099
  13.2134211  49.4455290  38.7179089  13.0583286  50.7211208  37.9180360
  11.3931537  59.4136000  34.0678000  11.4073575  60.3668118  34.1539311
  12.3123538  59.1690826  33.9604950  23.3136463  41.7874050   7.3096627
  23.9701819  41.0927248   7.2585791  23.3386183  42.2043610   6.4484102
  40.1777124   3.2785711  26.0202789  41.0887623   3.5464391  26.1405778
  39.7378683   3.5580832  26.8231750   6.5551895   3.2891202  34.7938013
   7.0648402   2.6118731  35.2385759   7.1866828   3.9861697  34.6161222
  11.4116287  65.4811239  56.6404247  11.5362537  66.1872864  56.0063648
  10.5518913  65.6530666  57.0245123   0.9218638  47.1756935  20.6702900
   0.4502057  46.4283037  20.3026175   0.3947367  47.9359627  20.4246068
  51.4834738  57.7216005  53.2108402  50.5693579  57.4465322  53.1403923
  51.8545723  57.1497345  53.8827705  66.9105911  62.7466869  59.4717932
  67.8676271  62.7625942  59.4637871  66.6764736  62.0896912  58.8162184
  86.8114185  38.1863403  68.0409908  86.0593605  38.6834383  67.7192307
  86.7120552  37.3197150  67.6468849  83.6608791  57.8014898  63.1103420
  82.8475857  58.2854176  63.2538891  83.3794212  56.8986797  62.9621792
  52.1965408  77.9351425  37.7702236  52.8746033  78.1434679  38.4129286
  52.0160961  78.7678289  37.3339868  17.8650916   7.0425886  40.4296780
  18.1605411   6.4110512  41.0855007  16.9432652   7.1923125  40.6395674
  61.6317034  74.0017891  58.8981390  61.5565872  74.3948126  59.7676897
  62.3570490  73.3822203  58.9771795  81.0738087  53.7587023  32.4870420
  80.3349972  54.0353632  31.9449568  81.1092186  52.8085327  32.3767614
  81.6540337  41.5853596  26.1569452  81.1771393  41.5252590  26.9847059
  82.4991035  41.1734390  26.3369441  64.6713734  50.3278780  16.8000162
  65.0007343  51.0994577  16.3391340  65.1514482  49.5952415  16.4140010
   4.6211714  27.2869825   8.2430953   3.7355572  27.6499486   8.2298928
   4.7062445  26.8945289   9.1119874  84.1190529  36.3533497   5.5336642
  83.3958530  36.8986535   5.2240419  84.8906898  36.7035389   5.0885099
  30.3452706  43.2344866  33.2624626  29.4149852  43.4434319  33.3469701
  30.3628182  42.4159145  32.7666211  12.0082402  20.5827522  33.1083941
  11.1167467  20.4952931  33.4457684  12.0506454  21.4782882  32.7730608
  67.3117971  71.6682148  33.4786677  66.9219303  71.8669415  32.6273489
  66.9690418  70.8030987  33.7029910  82.8939915  53.4953547  52.0238686
  82.9418468  54.3795776  51.6604185  82.5323486  53.6165142  52.9018021
  81.8521118  41.8038797  15.3122532  80.9949207  41.7604923  14.8884881
  81.6870880  42.2534513  16.1410391   3.6857241  14.5813429  49.3052864
   4.4494453  14.2106605  49.7475052   3.3871967  13.8857770  48.7193680
  83.2502556  19.6758986   2.3199944  82.3603344  19.4822872   2.6146039
  83.8047504  19.0828872   2.8270453  28.3438897   4.5147732  48.7465954
  28.5855174   3.6304697  49.0220165  28.5540652   5.0661868  49.5002556
  81.9791222  39.2857289  40.9073305  81.1518574  39.7171545  41.1211920
  82.0630836  38.5913873  41.5608406  12.6670599  53.8011122  30.6344843
  11.8722522  53.3341551  30.3766823  12.4942541  54.0918350  31.5299439
  10.3285456  33.1047463  64.3974829  11.0608935  33.0664515  65.0126553
   9.6776533  33.6543965  64.8338985  66.4398289  79.1251421  63.8193512
  67.3409510  79.0331459  63.5099173  66.0835075  79.8508120  63.3068371
  54.4908714  51.6823149  62.5432682  53.9609957  51.4074707  61.7949867
  54.1045618  52.5139809  62.8177404  84.7420597  66.0325003  46.6481829
  83.8531017  66.2880325  46.4018488  85.2286243  66.0333633  45.8238745
   5.5484134  58.4689713  11.9684732   5.9189904  58.8221979  12.7772605
   4.8949882  59.1156864  11.7019618  84.3419266  66.0873079  59.6795225
  84.0743256  66.5315104  58.8749647  83.6780548  66.3361168  60.3226423
  76.4464426  73.5458517  43.6575413  75.7078600  74.1539812  43.6274576
  76.7446327  73.5759830  44.5666075  73.4808016  70.9437656  16.4547169
  72.7609205  70.4053020  16.7834377  73.9160681  71.2687635  17.2428513
  86.2125492   1.5822102  27.7256823  86.2648201   0.9500524  27.0088315
  86.5957642   2.3828438  27.3673987  29.3167973  64.3288374  61.7283678
  28.7898827  63.5350227  61.8203306  29.0724397  64.8670673  62.4812460
  58.7068605  65.3597403  57.7769375  59.0164185  65.2942228  56.8735456
  58.7296009  64.4603443  58.1037378   8.3465588   8.5877550  14.1520572
   8.4378284   7.7080119  14.5180535   9.2349255   8.9440733  14.1605997
  12.2596574  76.9417095  68.3990431  12.3419142  76.5234375  69.2560816
  12.1547914  77.8725624  68.5958958  43.7051916  43.0576754  10.8246756
  43.3001041  42.2615528  10.4806972  43.8394642  42.8754807  11.7547333
  81.6707802  43.1095505  17.9666543  81.8271542  43.3466053  18.8807583
  81.0777187  43.7869453  17.6416326  42.7758121  18.7964928   9.2084879
  42.6469421  19.6034241   8.7100029  42.0387793  18.7716544   9.8187345
  61.2328959  74.5825529  53.5795784  61.1174345  74.4486952  52.6388454
  60.9365273  73.7633610  53.9762211  56.3497829  38.2318568  55.3243160
  56.1168242  38.5349989  54.4467831  57.2187376  38.6008644  55.4823637
  67.6672792  56.3765621  69.6253157  66.9381905  55.9489012  69.1761351
  67.8523731  55.8102322  70.3744793  61.0976315  59.5047617  25.4909682
  60.5697870  60.1693773  25.9335709  60.6789064  58.6749458  25.7196689
   9.8743773  64.3688250  15.4684711   9.5993948  64.6968842  16.3246226
   9.2967927  63.6242390  15.3004861  47.6537085  73.1610680  21.7135239
  46.9119167  72.6211929  21.4405584  47.7020788  73.0398178  22.6617813
  70.2773428  48.7983990   9.5808542  69.4299364  48.5341978   9.9390936
  70.8803415  48.1089258   9.8587942  66.7682552  70.6218529  60.7770300
  66.6835690  69.8909569  61.3892746  67.6842213  70.8901453  60.8495522
  69.4902229  58.6513758  49.4467449  69.7149706  58.4554720  48.5371637
  70.3094769  58.9583349  49.8351145   2.4667916  45.6500578  25.3816438
   1.8426907  45.4734039  24.6777081   1.9583285  46.1251450  26.0389018
  59.5471382  70.9344196  59.0011740  60.1522112  71.5996790  59.3291235
  58.9260769  71.4215946  58.4597158  86.2491754  56.6817570  21.9572306
  86.9182090  56.5456724  22.6281309  86.1866863  55.8393908  21.5069580
  70.7000875  50.1620817  45.8911991  70.1518297  50.7209682  45.3404808
  70.2484894  49.3181610  45.9006357  79.3462515  71.6065025  44.1744947
  79.5909405  72.1614504  44.9150324  79.2836475  70.7262468  44.5452452
  60.5158758  32.8477025  15.2090073  60.8245707  33.4535289  15.8827388
  61.3133812  32.4449992  14.8654306  85.8455944  66.3708830  28.9747643
  85.0366116  66.3120317  28.4665298  86.4662552  66.8028545  28.3878946
  66.2274790  76.0333490  44.4237852  66.8111658  75.2747488  44.4155645
  66.3735485  76.4571238  43.5780239   9.3476033  68.9943504  62.0595503
   9.1348439  69.2793131  61.1708641   9.5685822  69.8018742  62.5235653
  80.1062107  57.4218798  16.0807467  80.5710793  57.5676632  15.2568102
  80.5540752  57.9856730  16.7114449  84.5030975  63.8045740  33.0789876
  84.6545696  64.5855236  32.5466275  85.3431606  63.3457565  33.0755949
  46.6599894  37.7890229   2.9427114  47.2380733  37.2843981   2.3705225
  45.7979393  37.7212691   2.5322050  68.2392645  64.6227598  37.0414662
  67.4702835  64.9199724  36.5550852  68.6094093  65.4220772  37.4160528
  60.7073832  57.0982599  29.6244621  61.6082716  56.7857075  29.5411444
  60.4299879  56.8012047  30.4910874  68.3938313  67.4857235  49.7415638
  68.9246035  67.6235867  50.5261040  67.6603317  68.0929661  49.8388720
  66.1641312  64.2517042   5.3439951  65.4460955  64.8431444   5.5694950
  66.9326878  64.6365166   5.7652688  33.9543796  66.9951344  46.1407614
  34.5064425  66.6515446  45.4383326  33.2167459  67.4035549  45.6876373
  76.7796469  65.1520157  49.2528152  77.4459457  64.4648314  49.2454243
  76.2175608  64.9486780  48.5051870  18.4476233   1.8888879  12.3121595
  18.5223079   2.7948737  12.6118994  18.0767035   1.4192545  13.0592167
  80.8334923  63.5206175  15.8188272  80.4219151  62.6828003  15.6069398
  80.7009029  63.6209965  16.7614698  35.2759171   1.5342949  21.8734765
  35.8250642   1.8621834  21.1613274  34.4005919   1.4710760  21.4913225
  60.3374434  69.8521042  43.6326265  60.1634312  70.7614279  43.3895636
  61.1923981  69.8784351  44.0622663  34.5401525  31.7312050   4.1711378
  33.5995054  31.8155718   4.3270051  34.7934365  32.5659204   3.7770167
  81.7407417  36.4430165  54.3027592  82.3862839  36.0746884  54.9059534
  81.9785118  36.0829353  53.4483385  73.8749743  60.5233288  20.5695796
  74.6085119  60.5298996  19.9546754  74.2861557  60.4709339  21.4323759
  56.0672569  17.0588958   3.2173628  55.5237484  16.9968319   4.0028393
  55.5811119  16.5735888   2.5507513  49.6100426  77.6516771  41.4778757
  48.6706972  77.8339529  41.5031338  49.6798229  76.8179226  41.0128880
  59.5125580  41.8249464   3.0162686  59.2755318  41.0937405   2.4458396
  60.0618458  41.4314938   3.6942863   0.5305955  69.0194035  31.8211842
   0.5134796  68.5350847  30.9957290   0.9867330  69.8343420  31.6113138
  38.9427996   3.1285733  23.7198496  39.4393039   3.1040764  24.5378447
  38.0399156   2.9491663  23.9822340   4.1453636  68.1245565  38.6344647
   4.4590566  68.9139891  38.1933093   3.1974596  68.1367493  38.5019445
  41.5186214  76.4419842  25.1656461  41.8166971  77.1874619  25.6868434
  41.7997932  76.6456699  24.2736340  74.7168398  38.4408379  34.4100261
  75.2161503  38.9636755  35.0373697  73.8465786  38.3641243  34.8011684
   9.8890615  63.8750696  31.4554071   9.1908479  64.4338751  31.1141396
  10.6829309  64.1950035  31.0268712  82.8092289  52.9477930  18.9317381
  82.4913406  53.8470364  18.8508546  83.3311749  52.9495239  19.7341156
  11.8534803   0.6342734  36.7104459  11.4777839   0.2019092  35.9435391
  12.1883285   1.4663830  36.3762283  73.1520271   8.4736300  44.3190145
  72.8056526   7.5870645  44.2177391  74.0697384   8.3462143  44.5594358
  10.9923601  33.4493923  52.9173183  10.6731570  32.5722742  52.7051783
  11.5467107  33.6886740  52.1745729   6.5121073  47.2801352  69.3081665
   7.2784448  46.9884968  69.8020315   5.8005857  47.2808647  69.9484539
   2.0163362  78.9647150  27.6849961   1.8176618  79.7231150  27.1358228
   2.0654821  78.2313108  27.0718622  84.4512463  10.7597518  43.3915043
  84.7806835  11.6522205  43.2856655  83.5011005  10.8604288  43.4491158
  71.3712120  78.9089251  53.8101292  72.2611618  79.1723490  53.5759783
  70.9578085  78.6923790  52.9744053  11.8874621  63.0522966  33.9328241
  12.7408576  62.6835155  33.7049103  11.8835843  63.9177275  33.5238695
  57.3965359  75.3471756  64.2858553  56.8973112  74.7321939  64.8232651
  58.2082081  74.8826933  64.0817213  21.4353395  52.9929590  67.7176809
  20.7278585  52.9801369  68.3623028  21.9289112  52.1906614  67.8877735
  67.0664978  50.0823021  32.7555966  67.8448629  49.6790218  33.1399751
  66.8925238  50.8431625  33.3097243  53.5013485  79.7185230  28.5262942
  53.0010891  80.2894211  27.9431558  54.1281557  80.3024292  28.9533758
  83.1241035  59.9994421  34.8336124  83.7518311  60.1309538  35.5441737
  82.8279781  60.8816147  34.6093035  75.8212376  48.3324337  47.2539186
  74.8735142  48.3280182  47.1196318  75.9316158  48.1547260  48.1879807
  50.3122139   5.0558102  17.0531893  49.8700619   5.1566511  16.2102389
  51.0010576   4.4123369  16.8868649  61.3992834  66.9980049  37.0906734
  61.7675400  67.1028614  36.2133932  60.9450245  66.1559963  37.0606780
  13.7521923  22.9630303  31.5296745  13.0391085  22.6218176  30.9899354
  13.3124387  23.4071255  32.2546768  20.8646965  23.7779212  30.9821582
  20.8505416  23.2873726  31.8039823  19.9507785  23.7958288  30.6981421
  55.9550953  53.2274103  30.3403783  56.4906454  53.8800716  30.7914305
  56.4488554  52.4118614  30.4259157   0.7850886  30.4694390  39.2105579
   0.2490116  29.6992850  39.3995523   0.8494870  30.9278893  40.0483561
  61.4600086   8.9246482  43.1366444  61.1772203   8.4381676  42.3623037
  61.5114164   9.8341048  42.8425741  84.0271282  48.8170576  41.8886232
  83.3317852  48.2354164  41.5813541  84.8379898  48.3636045  41.6581440
  64.7421026  27.7689219  67.6361465  64.1113567  28.4789920  67.5170279
  64.5670319  27.1689177  66.9111824  65.5784988  48.6501026  31.1615777
  65.8369064  49.1128254  31.9586635  66.4061308  48.4168148  30.7410669
   4.8746935  80.0777626  33.5270596   5.7479316  80.1791000  33.1483555
   4.5411101  80.9717751  33.6024761   0.1641485  80.0678158  14.6349859
   0.7588817  80.1472187  13.8891840   0.2481246  80.9013081  15.0980949
  81.5540314  35.0891972  49.3730068  81.2265587  35.8934259  48.9702463
  80.8719730  34.4400978  49.2006683   4.2717472  29.4283199  39.9696755
   4.0544876  30.1387167  39.3660474   4.6713579  28.7574315  39.4160962
   6.5617859  73.1442404  58.6488199   5.8259171  73.3786345  59.2143202
   6.4562249  72.2053671  58.4951925  40.4191160  70.5720758  57.9335165
  40.6760502  70.4782677  58.8508034  41.2362003  70.7671738  57.4746704
  63.6699152  81.3772106  64.8267889  63.4569693  80.5339622  65.2265596
  62.8279734  81.8264866  64.7524929  58.2326317  78.4539223  64.2177439
  58.0075073  78.6639786  65.1240683  57.8553867  77.5863266  64.0721607
  73.7234306  50.6989098  19.2161071  73.0109787  50.5592060  19.8399079
  73.5182905  50.1173306  18.4840441  27.2148418   3.4622043  56.6236115
  27.5557351   2.6306182  56.2942362  27.5692606   3.5320899  57.5100279
  21.6570997   1.6266477  26.2690806  21.0425425   2.3604579  26.2605357
  21.3544083   1.0525289  25.5655193  34.3583512  58.1492329  49.2151546
  33.6634111  58.7873363  49.0535545  34.3232799  57.5607729  48.4610224
  79.7973013  57.4504709  47.8297663  80.4699707  57.1310806  48.4312201
  79.8726034  58.4038305  47.8706408  18.4271502  23.7543058   1.2844586
  18.4146094  23.3856821   2.1677428  17.7008963  23.3226895   0.8344647
  45.0518847  74.7262716  53.0455542  45.1169014  75.6380177  53.3296776
  45.8048630  74.6011162  52.4679804  14.2671871   0.7701298  30.5982161
  13.7136638   0.6264122  31.3658023  14.9871862   1.3124453  30.9202862
  61.7010069  46.4451122  58.5778999  61.8115997  47.3939514  58.5169840
  62.5032377  46.0856676  58.1991529   5.5767030  63.5291719  65.1615429
   5.5200189  63.0006456  65.9575844   4.8166129  63.2642746  64.6435452
  19.0924788  54.8704910  32.2183609  19.6197808  55.6305218  32.4644089
  18.4035623  54.8320341  32.8817987  83.2367611  18.6367524  19.4661343
  83.9463139  18.0327082  19.2472768  83.3632946  19.3790460  18.8751853
  70.2604723  55.8131075  36.5875673  70.2408504  55.1612759  37.2882557
  70.4915619  55.3150368  35.8035040  71.3854408  41.2117767  37.5719023
  71.2713861  40.2686596  37.4546385  72.1308661  41.2907076  38.1671691
   4.1607243  62.2993994  27.3044157   4.8400810  61.7836666  27.7388430
   4.5446327  63.1712914  27.2114015  81.4772797  33.1685734  21.7168689
  81.1588860  32.7874708  20.8985662  81.5625000  34.1032004  21.5286016
  27.5093651   7.4134469  64.5064545  26.9975019   8.1802559  64.7638083
  27.8961945   7.6551163  63.6649132  61.1927128  60.2131081  20.4182243
  61.1237049  59.7605658  19.5775831  62.0835590  60.5631113  20.4293966
   7.3750603  42.6952362  24.4717789   6.9184297  43.2954788  23.8823462
   7.8837979  42.1297264  23.8907313  54.1770840  69.9552441  11.9836283
  55.0998926  69.7470617  11.8376017  54.1598558  70.9065151  12.0885718
  47.6948023  52.5404453  54.9377441  48.1697798  53.3603287  54.8020267
  46.8399334  52.6891756  54.5336342  70.3934383  41.4077044  43.0783272
  71.3282394  41.3647318  43.2796574  70.3151941  40.9999657  42.2158575
  70.2910614  33.3298659  52.4321938  69.5254421  33.5530400  51.9028091
  70.6743431  34.1749096  52.6671934  77.4916077  37.8580809  47.3649693
  77.1584225  37.8211212  46.4683867  78.4107590  37.6017213  47.2896671
  66.0219336  77.0555830  29.2412591  65.0969553  76.8554926  29.3848348
  66.4907265  76.4330578  29.7970676  80.2186012  53.9487505  14.3713415
  80.3999329  54.8300648  14.0447879  79.3826056  53.7118435  13.9698279
  52.6487923  60.1439190  41.2396526  52.6763105  59.8906279  40.3169823
  51.7835474  59.8646688  41.5389824  52.7396774  64.7745895  36.6048932
  52.8294277  64.7399521  35.6525397  52.1295357  65.4952145  36.7619157
  84.5751381  17.2282243  12.4490047  85.3192329  17.3012280  11.8513274
  84.2201900  18.1157684  12.4990964   3.1439614  60.1429749  35.2742100
   3.3854842  60.6087303  34.4736028   2.3061630  60.5277395  35.5316639
  84.6431065  80.3884220  62.9817247  84.4985962  79.7382927  62.2942114
  85.1898289  81.0566330  62.5684071  25.2868080  71.8115282  43.1898832
  25.5828094  70.9683704  42.8467989  26.0914588  72.3140240  43.3174229
  81.1129856  62.5732994  30.5321407  81.1864376  63.4742546  30.8469629
  80.3113461  62.5669527  30.0091076  18.3599532  67.0634985  17.8603327
  18.9711547  67.7489471  18.1301939  18.2099843  67.2291899  16.9295859
  74.1325808  26.4840126  17.5786340  74.5519638  26.7285371  16.7536759
  73.8947201  27.3183966  17.9829359  48.1497097  40.4676962  22.3809147
  47.5008726  40.7808590  21.7507005  47.9624891  39.5335364  22.4732566
  14.7769940  33.8362694  48.6760092  15.3210318  33.6184907  47.9191542
  15.3896213  34.2021704  49.3140030   0.9415683  39.6158004  30.6453443
   1.2341033  38.7155986  30.5028963   1.7507625  40.1198912  30.7309675
  12.1463168  67.7245760  55.1770306  12.8743458  68.1351089  55.6435823
  11.4429569  68.3728361  55.2127743  80.9344578  77.4184513  22.6601601
  80.6310272  78.1324577  23.2208347  80.9570312  77.7970695  21.7813134
  41.4585018  67.0245266   6.7662501  41.0324526  67.4008036   7.5364012
  41.3150120  67.6697731   6.0739380  38.5476375  50.2915955  10.2692199
  39.1919279  49.5895243  10.1785767  38.3897614  50.5889463   9.3731785
  70.5070305  42.0952940  46.6273069  70.8774233  42.2367811  47.4985266
  70.4786968  42.9677296  46.2345171  12.0751083  12.8592396  45.2167368
  11.7761838  11.9689786  45.4019737  13.0025291  12.7605474  45.0013733
  83.8543987  72.8613234  16.3119578  83.6775398  73.2782173  17.1552539
  83.0939674  72.3008108  16.1577022  78.1456518  52.9955006  40.1991177
  78.9635420  52.5730562  39.9367619  77.8547144  52.4996281  40.9644270
  78.0068636  22.9806638  13.7188864  78.1969070  23.1015563  12.7885640
  77.6327896  22.1013498  13.7746382  35.0688720   2.4190339  54.4284296
  35.8175206   2.9702812  54.6562052  34.3159842   2.8656313  54.8156548
   4.3567821  60.2011776  19.4288898   4.8064491  60.1613283  20.2729535
   4.1394553  61.1266088  19.3167412  50.0258207   4.8917782  64.4843149
  50.4370117   5.6458634  64.9068213  50.7596350   4.3463475  64.2010164
  55.3838015  71.1738825  24.9791574  55.1853037  71.7362833  25.7278490
  56.2906885  70.9010744  25.1183081   8.8339788  32.0713449  48.8586617
   8.3568943  31.2494588  48.7440920   9.4337481  31.9008994  49.5849228
  71.4705229  46.1386251  17.5731230  71.0214472  45.8867121  16.7662144
  70.8444309  45.9371853  18.2685792  38.5323262  74.0011072  24.9796867
  37.7721882  73.8827372  25.5492544  39.0375113  74.6991920  25.3964615
  40.2895069  54.1915321   1.6332658  40.9169149  53.5102606   1.3914776
  39.4971633  53.9723682   1.1429685  55.4158688  79.0893364  62.3534298
  56.1474943  79.5877600  61.9893837  55.5627918  78.1930304  62.0512915
  77.8821754  72.9227638  49.1536808  77.4685144  73.4586048  49.8304272
  77.1801186  72.7425385  48.5284853  68.0761480  51.8398619  26.3092160
  67.7223158  52.3882771  25.6090164  68.7609100  51.3224697  25.8853745
  82.5861359  72.0363092  56.1598301  83.2096577  72.2335052  55.4608631
  82.4437046  72.8755665  56.5975475  80.8804226  49.4662571  16.4558017
  80.6778240  50.3183508  16.0696375  80.0343895  49.1300154  16.7514217
  85.1414394  50.6358528  12.1357727  85.1469707  50.0965548  12.9265666
  84.3795013  50.3308487  11.6431808  41.8223906  10.3666162   2.2454613
  40.8674335  10.4213762   2.2095281  42.0119381  10.0694633   3.1354073
  70.2600431  41.6537762  29.8445725  70.7986689  41.1157703  29.2643452
  69.5069742  41.9034910  29.3090725  76.2787056  37.9639912  41.6425562
  76.7301464  37.2802019  41.1477137  76.7559814  38.7666059  41.4321899
  58.6260653  55.7359219  54.5191479  58.8108778  55.3567362  53.6599064
  57.7397966  56.0886812  54.4396639  62.6089144  61.2483025  24.2057824
  62.2345209  60.5424786  24.7329211  62.3355103  62.0504713  24.6507621
  69.3942022  15.2853060  35.2669907  68.6929655  14.8039925  35.7061219
  69.5375919  14.8074305  34.4501019  41.3554859  67.3117876  48.4848356
  40.4073668  67.3480272  48.3583879  41.4898920  66.5729570  49.0783834
  75.8177137  60.0850964  44.5549393  75.8547783  59.2803574  44.0379715
  74.9462366  60.4411221  44.3817234  77.3066235  16.3669991  49.2324162
  77.1703577  17.2785211  48.9739799  77.4552393  16.4055777  50.1772213
  79.5300531  20.4219365  35.5973697  79.8244619  19.7543383  34.9777985
  80.2662468  20.5314231  36.1992550  44.4446611  55.6433439  43.0149937
  44.9006891  54.8484135  43.2913065  44.1131973  55.4377556  42.1408653
  66.7349720  52.3845387  53.4619713  66.7081928  51.4618349  53.7152100
  66.7839432  52.8593063  54.2916870  72.3975039  58.5588455  53.8474464
  72.5578356  58.2134581  54.7256422  73.2673454  58.7793732  53.5143137
  78.6588430  65.7083941  27.6931190  78.3184767  66.4018440  28.2583690
  77.8803492  65.3248596  27.2892833  67.9964018  30.6672668  60.5941916
  67.7000093  31.4932585  60.2119303  68.5052252  30.2504587  59.8987770
  71.0571098  23.8187242   7.2612405  72.0089436  23.7281680   7.3064750
  70.9126139  24.7511244   7.1000504  19.9376047  57.7498245  21.4702415
  20.5719519  57.7019691  22.1854639  19.1203928  58.0149937  21.8922400
  78.9723730  62.5147581  54.8707724  78.7897015  62.1959257  53.9869118
  78.4118891  61.9845009  55.4372692  12.7558839  78.6085987   7.6893890
  11.8842149  78.8378191   7.3670775  13.0625665  79.3991375   8.1334931
  49.3191004   5.6481689  54.8776722  49.0737724   4.7767937  54.5666265
  48.8580322   6.2497562  54.2930841  85.8191586  48.2592535  62.3755407
  85.9748650  48.7671471  61.5792847  85.0362587  47.7438021  62.1815920
  56.0884047  73.3017159   8.8801759  55.5519962  74.0934277   8.8391250
  56.4289474  73.2892466   9.7746634   1.8229891  71.9139767  57.3011827
   2.3273607  72.6185751  57.7078485   1.0422366  72.3468304  56.9557905
  78.1211090  49.9524212  45.3577662  77.3977041  49.5826912  44.8515892
  78.3321428  50.7719517  44.9104786  70.0703573  31.7865825  54.9301338
  69.8357773  31.8861461  54.0074778  69.4080305  31.1923385  55.2828789
  75.7659721  42.1305466  47.5947762  76.4550495  42.5283480  48.1269073
  75.8431911  42.5600767  46.7428493  25.6134868  47.4660206  18.7514639
  25.9532809  47.6597071  19.6251106  24.7842050  47.9419041  18.7060833
  84.5208836  44.9953651  42.6742506  85.4374313  44.8894024  42.4194145
  84.5539570  45.5178452  43.4755945  28.7148237  14.6672952  33.5925484
  29.4098258  14.2252147  33.1049323  29.0844154  15.5218482  33.8147449
  33.4170699  15.7102215  65.3310966  33.1398630  15.2393734  64.5451641
  33.4128428  16.6317391  65.0722170   5.5620980  57.5431108  67.4970675
   5.8996654  58.2753134  68.0129766   4.8411566  57.1934223  68.0207014
  44.4789886  74.2492247  38.8609052  44.8061466  73.9285040  39.7013450
  45.2608776  74.5524979  38.3994865  76.5209293  72.5954723  46.3991833
  75.7621622  72.5273609  46.9787216  76.7035103  71.6932774  46.1366081
   0.7396475  74.7036076  48.9825153   0.1227450  75.3313351  48.6061907
   1.0258266  75.1100349  49.8005342  17.9167223  77.6520634  35.8326483
  18.5814214  78.3408165  35.8380246  17.0919311  78.1140137  35.9828234
   9.7049868  22.7331233  10.7169259   9.4088668  22.3520303  11.5435541
  10.0759232  23.5804892  10.9631133  82.9737568  70.9673071  51.7220163
  82.4744987  71.7385149  51.4532852  82.3548698  70.4484177  52.2357893
   4.8915777   5.8872366  30.4013848   4.6825951   5.4093570  29.5987701
   5.2489257   5.2222717  30.9899044  76.0195446  79.5643568  36.5596366
  76.1497831  80.5091095  36.4776921  76.6066360  79.1840792  35.9062243
   3.9815885  56.2426329  19.4600689   3.8268331  55.7367563  18.6623406
   4.3711972  55.6156778  20.0694633  74.1016960  72.3597383  14.3085039
  73.7993479  71.9167662  15.1013434  73.3075762  72.7305889  13.9237010
  67.4421263  60.1417923  29.5002699  67.0746183  59.9851513  30.3701162
  68.2401705  60.6442165  29.6643543  21.0094500  20.1352072  13.4338379
  20.2888656  19.9899828  14.0469420  21.2274456  19.2615378  13.1091702
   8.6406624  57.1158600   7.8280717   9.4803500  57.4880171   8.0976182
   8.1977373  56.9040489   8.6497682  25.3134298   4.4345215  59.3377542
  25.5094981   5.1811939  59.9036789  25.8431339   3.7201199  59.6917009
  35.1559258  77.7882719  48.1662655  34.7069001  77.3743820  48.9033604
  34.4743681  78.2947063  47.7244091  40.2170277  21.3495684  45.9858561
  40.8606529  22.0263743  45.7762957  39.6418929  21.7580843  46.6328239
  71.3108444  78.1112146  36.8347287  71.8334055  78.9108324  36.7732978
  71.6517735  77.6610804  37.6076293  26.0001254  20.7228327  22.1260715
  25.3234410  20.3381467  21.5689850  26.8170929  20.5686927  21.6516924
  28.8233423  22.5257206  34.9717951  29.0894818  22.6496053  35.8828688
  27.8894758  22.7356434  34.9644113  52.9150629  68.2132196  44.5857954
  53.2502460  67.3438072  44.3666935  53.1600618  68.7595701  43.8389921
  40.7022285  21.1227679   8.4509081  41.2941790  20.9870076   7.7110457
  40.1327515  21.8403745   8.1734741  24.7948456  74.6786356  22.7591562
  25.7402587  74.8236418  22.7965736  24.6964312  73.7275791  22.8043342
   6.2669593  15.7248425  51.8497801   6.7193210  14.9864066  52.2575951
   6.3257188  15.5523431  50.9100866  63.1359720  64.2594147  67.7774572
  62.7497149  65.0258875  68.2012081  62.6299524  63.5195923  68.1133699
  61.8111849  64.3027592  49.0154123  62.0467663  63.6088467  48.3996010
  62.4265289  64.1980457  49.7410965   0.6200575  50.8989191  54.7537136
   1.2562236  51.1574554  55.4205608   0.6570046  51.5998650  54.1029119
  79.5005274  39.6262527  10.7544732  79.3463039  40.5295324  11.0311258
  80.1913548  39.6923113  10.0952113  64.8306704  78.2849216  69.3286562
  64.8314095  79.2414904  69.2939901  65.7368803  78.0378675  69.1443157
   8.5592902  79.5064449  69.3567324   8.2054633  79.8363829  68.5307932
   8.5957634  80.2752495  69.9257994  59.7678471  74.3401861  28.0684876
  60.4986954  73.7329531  28.1840968  58.9871788  73.8060617  28.2151103
  78.3188057  69.3417263  67.1771955  78.5863256  68.5986185  66.6364050
  77.5411844  69.0322590  67.6417017  30.8435559  26.4372849  64.0258837
  30.6067681  26.6378355  63.1203747  31.5545654  25.8006859  63.9521456
  66.4680862  76.5324450  12.6566911  66.3416576  75.8223248  13.2859588
  67.4182892  76.6257048  12.5885165  42.4234104  80.4014492  21.6447377
  41.6893816  80.3513145  21.0324311  43.1509829  79.9870729  21.1808825
  78.6031532  78.9445734  64.1402054  79.3737125  79.4623184  64.3734646
  78.0604935  78.9541817  64.9286604  20.8330441  65.6587934  53.7107515
  20.3730297  66.4972448  53.6705542  21.5402055  65.7426786  53.0711269
  14.5364976  42.1590376  49.1100931  13.8785625  41.6442728  49.5773983
  14.0444958  42.8849697  48.7264395   1.5088572   0.3795488  43.6500263
   2.0458527   1.1568196  43.4960175   0.6088108   0.7053049  43.6444426
   5.9546238  54.7703409  59.5749283   6.3346255  54.2900324  58.8393068
   5.0535953  54.9480438  59.3051100  28.9984465   2.1569157  55.0428867
  28.7224102   1.8534064  54.1780615  29.1982079   3.0847514  54.9185944
  63.1854534  49.1463518   5.6747192  64.0167093  48.7921095   5.3588712
  62.7776718  49.5292234   4.8979598   3.2557681  63.4045267  15.1927984
   3.1429997  62.6438332  15.7627583   3.6893785  63.0575037  14.4131923
  10.2578223  78.6443090  28.2142830  10.8819616  78.3600044  28.8820052
   9.9833274  77.8350878  27.7829599  76.8089581  61.4588070  20.1983142
  77.0286608  60.7998705  20.8569217  76.6000986  60.9524775  19.4133055
  66.1622477  80.8410835  44.9726200  65.3405952  81.0497189  45.4171276
  65.9167767  80.2031517  44.3025303  79.9896431  56.2277031   9.3978578
  79.8921919  57.0769405   8.9671224  80.5827236  55.7371616   8.8287759
  53.5040522  74.8829031  24.3743110  52.8586864  74.1937780  24.2167187
  53.5390806  74.9648380  25.3273559  38.2444048   5.0229472  32.1227670
  38.3917785   5.8450598  31.6551733  37.3053432   5.0178677  32.3081660
  33.2286501  20.9429932  56.2272167  33.4720993  21.5167856  56.9536638
  33.5191417  20.0731134  56.5013552  70.6321764  55.0472689  46.5395737
  70.7939672  55.9660244  46.7539120  71.5025997  54.6496582  46.5172577
  83.0384159  33.6744833  47.7541065  83.5042000  33.5225058  48.5764074
  82.3317528  34.2767048  47.9868841  34.6824169   1.1024028  36.5306377
  34.2679262   1.9083546  36.2226272  35.6189036   1.2484404  36.3968563
  85.1400185  70.1966143  38.0067825  84.8157597  69.3866587  37.6130056
  85.2699280  70.7880640  37.2654748   8.5340059   2.1312808  39.1970706
   8.0095065   2.8371546  38.8190842   9.2840230   2.5755292  39.5924807
  77.3846769  42.0787621  42.4254847  76.6759682  41.6058350  42.8617287
  77.0595980  42.9753590  42.3438358  29.8310971  74.2061043  39.2823482
  30.7255888  74.1409540  39.6168232  29.5036530  75.0340223  39.6338654
  40.2859926  14.7727025  24.9525118  40.8924961  14.9960053  25.6585693
  40.6820059  15.1516485  24.1677785  26.0282826  22.6489258  35.4699564
  25.5417562  22.8481889  36.2698436  25.4433584  22.9162145  34.7609782
   5.8320564  77.6340055  34.8081851   5.6099540  78.2054186  34.0730739
   6.7644411  77.7893162  34.9590778  23.4656453  13.5889781  45.5821991
  22.8363585  13.4288776  44.8789215  24.2415905  13.9288318  45.1365089
  86.2090874  75.5609798  31.2326431  87.1479034  75.4559612  31.0783100
  86.0215282  76.4606619  30.9650135  78.2447529   6.1923683  44.9935961
  78.0276966   5.2601784  44.9817276  77.7228785   6.5506822  45.7115746
  54.3896914  36.6644549   2.1222055  53.7854290  37.0146132   2.7767950
  53.9839983  36.8796420   1.2823597  40.4137564  63.8119602  48.3326149
  40.9692574  63.0646658  48.1108093  40.0732183  64.1153908  47.4910736
  70.8548641  65.0911903  46.1527491  70.2380371  65.8045197  46.3168001
  71.6447067  65.3426933  46.6314268  72.8487587  27.1292043  47.2383451
  72.6589870  26.3515997  46.7134142  72.0098782  27.3589754  47.6379871
  86.6120052  56.7350578  45.1801157  85.7518864  56.7045259  45.5990458
  87.1701813  56.1949158  45.7395029  47.7183104  81.0962009  44.7101688
  46.8699408  80.6638145  44.6124840  48.3209991  80.5604076  44.1944790
  84.2141533   4.2567328  26.8206596  83.6365509   3.6863184  27.3278379
  84.7377396   4.7137177  27.4788833  71.3327169   1.0419756  44.1364336
  71.8334675   1.5427500  44.7804070  70.6492138   0.6094443  44.6482658
  30.5970144  34.2658138  30.9440279  30.1820564  33.4212899  31.1195803
  30.7771158  34.6290350  31.8111300  72.4808121  70.3571987  51.2005138
  73.0408764  69.6465778  51.5128803  72.8229856  71.1395931  51.6329575
  49.2499304  32.3023462  25.0846052  49.6640158  32.2767663  25.9472227
  48.9862728  31.3972807  24.9185562  64.4580269  64.9150419  17.6110792
  65.1724863  64.5886564  18.1581235  64.6102858  64.5154285  16.7547154
  15.2177978  19.9168169  55.5833626  14.4178021  19.8099089  55.0687695
  15.3433466  20.8642364  55.6368685  77.1309710  47.9852533  63.3388424
  77.4189425  47.3296547  62.7036285  77.4599457  48.8148260  62.9927015
  79.0798378  64.5273924  32.1492743  78.4329176  64.3796873  31.4594150
  78.5837030  64.9338007  32.8598475  15.6125593   0.5818534  34.4070601
  16.2059343   0.1904653  33.7660027  14.7579598   0.5781375  33.9759231
  11.9292057  56.0672712  62.0831060  12.5929320  56.5474415  61.5879917
  12.1469498  55.1455784  61.9441748  81.7887497  43.8745880  47.5023937
  81.8355083  44.1455078  48.4192610  81.1751747  43.1399059  47.5007248
  13.0694592   2.5579384  41.0457468  13.4577024   2.5910744  41.9200468
  13.2587910   3.4163514  40.6669140   1.5125455   7.6151884  46.5387392
   1.9130132   7.9870862  47.3245811   0.9901402   6.8806326  46.8608475
  20.9307623  64.0716076  64.7736359  19.9878573  64.0894985  64.6098089
  21.0102844  64.1519880  65.7241344  82.8249931  46.0415983  30.8924675
  82.9924011  46.4474869  31.7430329  82.6743126  45.1179266  31.0933590
   1.8348438  76.0742998  44.4614887   2.1369566  75.2130508  44.7499609
   2.5985509  76.4666748  44.0383768  61.6499662  46.3231421   1.2339135
  61.4814711  45.4055929   1.0195547  61.3388872  46.8086243   0.4698667
  76.6727781  53.6583519  44.0023375  76.6592312  53.6562204  44.9594402
  76.3357592  54.5208502  43.7599564  30.5052924  68.2680178   4.7089449
  30.8782625  69.1212797   4.9304551  31.2592673  67.7355528   4.4555011
  69.4126129  70.0140190  65.3870869  69.8287773  69.6998310  66.1897850
  70.1397324  70.1619959  64.7824144  78.7368536  60.1541758  64.0770817
  78.8540173  61.0435820  64.4109344  78.4183884  59.6558428  64.8297262
  70.5311871   2.1084824  34.4379687  70.6253338   2.7903688  33.7728381
  69.6573496   1.7474008  34.2887878  33.5560966  17.7491212  44.2678881
  33.9190602  18.4359872  44.8270845  32.9333019  17.2873974  44.8292875
  85.2677155  13.6992955  56.6411400  85.1261139  13.6216211  57.5846195
  84.6634388  14.3880367  56.3641596  81.3676643  62.5537920  36.6652441
  80.5121708  62.8996468  36.4107800  81.9945335  63.0647898  36.1532402
  10.0400686  61.0989952  60.8209229   9.7545767  61.0828972  61.7344189
  10.5639577  61.8967533  60.7477379  45.6512165  28.6375713  16.1622941
  46.1831236  27.8431296  16.1157322  45.3593874  28.7835050  15.2624214
  36.7458415  17.9821646  62.0196438  36.8521738  18.4919250  62.8228045
  37.6372123  17.8631103  61.6917467  78.3906698  32.8170848  35.3621149
  78.0251312  31.9349575  35.2952909  78.6149979  33.0522275  34.4617701
  20.6854224  32.8478408  35.0062799  20.1045489  32.6778960  35.7478571
  21.0651493  31.9940090  34.7988939  81.4734936  45.6424522  54.0147686
  81.1067963  46.1989927  53.3277273  80.7611465  45.0462532  54.2457151
  52.5412655   1.2515338  40.2033806  52.0957136   0.5318088  39.7564864
  53.4690571   1.1146788  40.0117922   3.0291998  29.6656585  30.7695699
   3.2467726  28.7454176  30.9180641   2.0842132  29.7146559  30.9139013
  60.3594971  80.4051018  52.1266842  59.7859287  80.1507759  52.8495741
  60.4612589  79.6062660  51.6092443  78.1781721  78.4456635  30.4103136
  77.9350710  79.3584776  30.2556872  79.0416145  78.3561325  30.0069785
  82.3346901  62.6440954  46.9137192  81.6646957  63.2160616  46.5392923
  82.7991009  62.2906113  46.1550379   8.3432555  80.1288128  51.1486197
   7.7482784  79.3795252  51.1769581   7.8326875  80.8538342  51.5090322
  68.5534143  43.8520432  56.0289192  69.3373871  44.3706179  55.8481026
  68.0381966  44.3964195  56.6242647  77.5283527  39.0408063  15.2625489
  77.2565794  38.6120296  14.4510567  76.9444990  38.6813951  15.9305096
  68.1957912  51.6185236  41.2582922  68.5604382  51.7343235  42.1357059
  67.3751068  52.1109533  41.2730837  57.0013952  11.1092472   8.0814081
  56.5438414  11.8075824   8.5495961  57.8929567  11.4394724   7.9704940
  50.5944824  63.0697155  37.1353292  51.3745785  63.5941696  36.9546914
  50.9166384  62.1695805  37.1823502   6.0139829  58.9270306  59.6706772
   5.0621706  58.8283920  59.6470928   6.2883300  58.4210968  60.4355288
  84.1676235  65.9709835  66.5292883  83.6972141  66.5280056  65.9090662
  83.4929276  65.4017496  66.8994188  60.1902390  40.4723024  52.4696207
  60.8101130  40.2712917  51.7684889  59.7309446  39.6473813  52.6270437
  21.7520165  65.6853628  33.9098644  20.8185291  65.5140352  34.0342832
  22.1797800  65.2100945  34.6221638  17.8621995  71.7250538  17.1265101
  18.3271015  72.5585699  17.0533442  17.7269137  71.4459705  16.2209487
  10.9665310  35.7873440  63.2886505  11.8542635  35.4561305  63.4245253
  10.6417823  35.2988219  62.5322628  82.1755695  55.2132034  39.0414762
  82.8554630  54.5541286  39.1814923  81.5964985  54.8244238  38.3859253
  77.3738289   3.1647676  21.7438245  77.7321625   2.9733196  22.6105285
  77.9921198   2.7613488  21.1345625  73.4441566  28.6088967   4.6260479
  72.7841282  28.3703566   3.9751318  73.2252169  28.0808139   5.3937900
  72.1000147  12.7340662  54.6117973  71.8734932  13.6227751  54.8858738
  72.5493765  12.8488636  53.7744617  58.6957985  81.4110669  19.8989975
  59.3176080  80.9017550  20.4187918  59.0711174  82.2911815  19.8713231
  32.3338366   6.9423032  69.5203781  32.5317931   7.0292956  68.5879230
  31.5022707   7.4028671  69.6326780  86.5450954  50.8967733   6.3642520
  86.1204338  51.6509151   5.9553951  86.5588856  50.2288771   5.6787199
   4.4488078  52.8741360  37.2022986   4.5689458  53.5551119  37.8641701
   4.5136759  53.3376026  36.3672996  75.3215694  63.1429863  37.9670000
  75.2014637  64.0617990  37.7270317  75.2746630  63.1370258  38.9230323
  11.7894614  58.6562014  14.8999786  11.6443324  57.8754044  14.3656337
  12.5040698  58.4139395  15.4889405  70.9635353  33.0894423  46.2059450
  70.9049606  33.5846853  47.0229721  70.9054136  32.1731424  46.4765930
  50.7638359  75.1549053  47.9996300  51.2385702  74.8072863  48.7546253
  49.8905993  74.7687531  48.0672598  77.4699640  78.8493395  23.8436890
  76.6532278  79.3451023  23.7853837  77.1923828  77.9340553  23.8815355
  79.7678375  63.5372114  49.6376991  80.5820179  63.0478859  49.7556162
  79.6737528  63.6205292  48.6887884  31.6675162   6.4244014  55.8294630
  30.8701515   6.1155826  55.3992653  31.3547254   6.9817179  56.5420580
  61.8856525  39.0179753  51.0177565  61.3963890  38.2180023  50.8256721
  62.3247814  39.2335415  50.1950026  10.4252946  75.1551485  56.4972210
  11.0888791  74.6108055  56.0734558  10.4214156  75.9667063  55.9896851
   7.6807678  36.3119507  10.6233227   8.3082795  35.6041646  10.4767001
   8.0656469  36.8307662  11.3296735  18.9011586  32.1683097   9.6865165
  18.9644468  31.2575674   9.3988037  18.0295348  32.2363544  10.0762272
  38.0339074  80.6949711  38.4932280  38.1304693  81.6418648  38.5946989
  37.8418803  80.5720615  37.5635767  77.3788500  72.3135042  17.5857854
  76.9626188  71.8065643  16.8886554  76.6640234  72.5288582  18.1848478
   9.4504964  51.6737270   6.8378675   9.2446285  52.6085281   6.8378156
  10.2640522  51.6076136   6.3378793  18.8711739  80.5039406  20.0996351
  19.0743852  79.9646950  20.8639359  19.7126997  80.8797073  19.8410475
   0.8975248  73.0507755  53.6255693   1.0536689  73.6021996  54.3922377
   0.3592520  73.5913229  53.0473804  40.4794741  81.5864944   1.6267219
  40.9569216  80.7871723   1.8488993  39.8371720  81.6850090   2.3295537
   9.6576291  67.1864080  21.6031432  10.3131652  67.8827906  21.5636945
   9.0582514  67.4607325  22.2972083  37.2554445  12.2286141  36.4487267
  37.9533005  12.0748782  37.0855904  36.4512300  12.2194040  36.9677496
  51.0792208  73.5582733  13.2543492  51.0498667  72.9760981  12.4951112
  50.1606750  73.6990738  13.4838641  74.8766613  78.8427258  40.0188351
  75.0826359  79.7120667  39.6752477  73.9538193  78.7116051  39.8011088
  67.1545649  72.8301096  25.6484222  66.3814926  73.3601284  25.8425140
  67.6388264  72.8017139  26.4736009   7.0537615   9.2662549  63.0078125
   7.8050447   9.2490608  63.6006927   7.4400347   9.2886573  62.1323013
  14.0565634  14.8537338   3.0797267  13.4446704  14.6338522   2.3772514
  14.4224513  14.0118206   3.3509070  23.3023071  70.1489925  34.3500042
  23.1794167  69.4872713  33.6693788  22.5420356  70.7242870  34.2647958
  30.0067472  20.4520178  27.7170658  30.7774997  21.0041785  27.8485608
  30.3634119  19.5897698  27.5036454  21.0300660  13.1746042  46.9728851
  20.7963991  14.1012430  46.9183731  21.9329786  13.1363201  46.6574287
  23.8506126  57.6581001  21.7977667  24.7590733  57.3882580  21.6631794
  23.8934135  58.6108017  21.8799686  16.3496089  13.5442996  12.7519178
  15.7273543  13.6366129  13.4733796  15.9050548  13.9367163  12.0005107
  42.7121592  65.4070520   8.5709405  42.3380327  66.1778593   8.1441879
  43.5974598  65.6754303   8.8167912  15.9569871  71.0772848  31.6571546
  16.1114514  71.9691801  31.9684362  15.3177249  71.1771441  30.9517455
  23.9076900  68.4168863   1.2496656  23.6111140  67.6098967   1.6704321
  24.3304491  68.9116192   1.9516262  40.6133366  26.9083595  10.7073033
  40.7711697  27.5613499  10.0254524  39.6676421  26.7621398  10.6845975
  27.4454021   4.9783444   5.5686045  27.4243546   4.9786422   4.6116358
  26.6210890   5.3909755   5.8264321  68.6221027  28.1111407   5.0059146
  68.1379843  28.9161730   4.8221010  68.3539486  27.8673911   5.8918667
  17.8227735   5.7976753  62.9406881  16.9053268   5.9944409  62.7514648
  18.0037642   4.9993318  62.4445820  52.4546528   3.2179898  42.2674656
  52.4910688   2.5513294  41.5815592  51.6199875   3.0617708  42.7092314
   9.0615267  75.0072432   7.1821392   8.2849896  74.4707203   7.3414099
   9.7961134  74.4429588   7.4233800   1.7079368  67.7473259  29.6055984
   2.3120910  68.0738020  30.2724147   1.4684027  66.8712234  29.9077487
  19.6844721  75.6986618  18.9996052  20.1658630  76.4745951  18.7125146
  19.1255844  76.0128975  19.7103322   8.6188424  19.1993105  52.0175457
   7.7275687  19.1822314  51.6688776   8.6517388  18.4620202  52.6270962
   1.5103741  74.9095678  17.0641029   0.9699181  74.8182249  17.8488290
   1.0153078  75.5037975  16.5001583  65.2862644  55.1318264  68.7943506
  65.0510073  54.4009495  69.3659306  65.1992321  54.7805262  67.9082108
  30.5246186  70.2199793  22.3030925  31.1360812  69.9809694  22.9996681
  30.5474401  69.4776487  21.6992259  21.4193773   5.9882927  40.4712343
  20.5529594   5.6191081  40.3001928  21.8480754   5.9996599  39.6154737
  54.6891689  45.4538012  68.6851931  54.3034792  44.9832153  69.4241285
  55.5162668  45.0016737  68.5187054  56.6177273  27.3248982  23.8816404
  56.5323734  27.9482675  23.1602836  57.5461912  27.3518229  24.1128659
  20.7281852  70.1395941  27.1390939  20.1296759  69.5451641  27.5915027
  21.5255785  69.6255779  27.0118713  27.3444390  34.8141718  34.1666651
  26.5991831  35.3489423  34.4402409  27.1743393  34.6199441  33.2449412
  66.0225487  70.0668144  58.3254433  65.0954008  70.2374744  58.1595945
  66.1666822  70.3757048  59.2198944  19.8054206  51.2588263  64.9703121
  19.6865106  50.9976625  65.8834887  19.8673260  50.4325819  64.4910145
  19.5926762   3.5127905  26.6190171  19.7622991   3.4965390  27.5609279
  20.1112223   4.2492118  26.2949419  15.2635336  67.4977398  35.6419349
  14.7996545  66.7933702  35.1892662  15.3483164  68.1892347  34.9855232
  66.9743633   5.0286955  19.5934129  67.0537376   4.8314071  20.5266905
  66.3347244   4.3951684  19.2682397   5.7360017  79.5877171   4.6459007
   5.8842719  78.6908150   4.9455884   5.9753221  79.5732546   3.7192139
  64.7049809  74.5047712  18.4980106  63.9318991  74.8511839  18.9436269
  64.5735788  73.5566473  18.4926176  41.1388540  78.4380484  44.0965796
  41.1260033  78.9213705  43.2704639  41.3808584  77.5458384  43.8483381
   6.5246576  57.9706669  62.2211075   7.3378479  58.0325699  62.7222300
   5.8370531  58.1785345  62.8537416  45.8114338  17.4484348  31.5370774
  45.8833599  18.2756555  32.0132756  45.4007006  16.8485677  32.1597219
  35.3732824  39.7365308  10.5404925  34.8454785  39.1358733  10.0143135
  34.7577286  40.4140949  10.8201885  54.7011852  81.3385010  36.9477105
  54.2646790  80.5892181  36.5424085  55.5373478  81.4066601  36.4868212
  14.9483669  71.3062143  18.4674966  15.0644505  70.3918552  18.2092309
  15.6191695  71.4538002  19.1341865  54.1399384  27.5620413   8.2986742
  54.7528219  27.4916387   9.0305543  54.1881084  26.7109871   7.8632236
  42.9736185  -0.0009689  14.8946369  42.2282362  -0.3324605  14.3938899
  42.6495218   0.8014233  15.3037310   8.5287166  68.5372782  13.4764671
   8.9572138  68.1539679  14.2417741   8.7299240  67.9332399  12.7617049
  74.8793936  79.6666765  19.9873769  75.7469225  79.2807245  20.1084876
  74.9871445  80.2729225  19.2545176  33.2439518  66.9290686  15.0177252
  33.5089922  66.1084890  14.6022379  32.5825334  66.6699743  15.6593072
  55.3719664  34.4121146   3.0614424  55.1346922  34.3582153   3.9872006
  54.9103498  35.1868367   2.7405870  77.8482389  28.6878610  12.8104007
  77.8611183  28.2570338  11.9557345  78.7629175  28.6876822  13.0925202
  80.8877373   8.3561963  21.8821216  80.5431175   7.8198981  21.1680841
  80.2629280   8.2335865  22.5968385   7.5036943  51.1734438   8.7442356
   6.9447756  51.8855619   9.0552562   8.0727559  51.5828133   8.0924535
  47.1775293  75.7631016  38.4933400  48.0953884  75.9612942  38.3076191
  46.6849518  76.3486338  37.9182339  37.9862332  71.4601517  65.4716444
  38.7991929  71.5854740  65.9611559  37.4249911  72.1838188  65.7501125
  11.9557297  80.9755993  47.6808739  12.5084984  81.7561817  47.7179813
  11.0773706  81.2940121  47.8890371  56.4768553  12.1621168  31.9853115
  56.3604593  11.4657235  31.3389993  57.4006319  12.1094155  32.2304511
  14.9486721  33.3644366  65.8559895  15.7589447  32.9805517  65.5208397
  15.1774645  33.6819196  66.7295361  44.5161343  78.3898354  13.4863675
  43.9590359  78.1333256  12.7514684  43.9437056  78.3345842  14.2515492
  39.9626112  62.0055389  23.2880402  39.4773006  62.5591183  23.8998032
  39.9274158  61.1313677  23.6763978  30.7296491  77.3298645  46.8315172
  29.9952340  76.9332314  47.3000765  30.6529212  78.2662487  47.0146132
  31.0107899  53.0559349  29.6463561  31.7186856  52.9018116  30.2719450
  30.2220154  52.7569675  30.0987816  75.6585932  11.7004550   9.7951829
  75.8832693  10.8026016  10.0393414  74.7119188  11.6807890   9.6550089
  77.2772598  14.2458773  47.6298761  77.2038317  15.0100589  48.2015991
  78.0015945  13.7399554  47.9981375  11.9211495   2.4875762  20.8480763
  12.1028280   2.5366533  21.7865944  10.9722960   2.5949287  20.7818627
  41.5970087  21.3853598  27.2371364  40.7516050  21.0266113  27.5069809
  41.7968893  20.9357882  26.4160585  16.9735038  53.8462162  35.7964015
  16.8133473  52.9030943  35.8296251  16.7126691  54.1640472  36.6607976
  16.0416722  58.0240726  47.6948786  15.7573330  58.2948399  48.5678434
  16.9624591  57.7871943  47.8056431  45.6275177  24.1747689  26.2967181
  45.2012444  23.5849595  26.9185257  45.1400995  24.9951243  26.3720131
  30.9307456  22.3664784  42.2766876  30.3596902  21.7028737  42.6636744
  30.4386735  23.1833792  42.3589611  61.0408258  17.9418862  50.3684473
  61.3836336  17.0527768  50.4590082  60.7266665  17.9866302  49.4653797
  26.9835114  77.6960564   7.9663843  26.3357687  77.1366262   8.3949846
  26.4665270  78.2764578   7.4077284  49.5998573  19.5868134  29.4987416
  50.3266287  19.7795939  28.9063954  49.4156599  18.6581755  29.3575525
  79.9186802  71.3813543  30.4700422  79.2248440  71.4481497  29.8140216
  80.6792355  71.0644531  29.9828482  75.2770758  27.3616219  29.3577409
  75.5031729  28.1685901  28.8952303  76.1084890  27.0490479  29.7145009
  28.2798934  27.6853418  37.0747542  28.8489294  28.3163857  36.6340542
  28.4869838  27.7842736  38.0040312  20.3725457  70.0239277  23.8706875
  19.7799313  69.3843031  24.2655587  20.3356457  70.7790089  24.4578147
  76.8646479   8.7002128  15.7154846  76.2489605   9.1576147  16.2881482
  76.7776489   9.1404372  14.8699880  12.5293672  67.8431845  14.6183908
  12.8592420  67.0373249  15.0158811  11.5855670  67.8191662  14.7761738
  10.1843405  53.0714798  29.5812583   9.8935717  53.8550901  30.0477791
   9.8944658  53.2083130  28.6793256  64.6966505  11.5691853   8.0507296
  64.1305256  11.9531035   7.3811495  65.5855799  11.7410088   7.7400583
  36.8534064   7.2980481  14.4065011  37.4210620   7.3070687  15.1771617
  35.9671521   7.3696768  14.7609758  67.5823879  10.9609139  64.2116356
  67.8544998  10.1138163  63.8586283  67.7279949  11.5773833  63.4940052
  27.8173470  10.7280266  34.1208649  27.0443821  10.1846886  33.9674425
  28.3276510  10.2412534  34.7680712  63.3121252  80.1900005  32.4587297
  63.9388704  80.9132481  32.4773455  62.4924850  80.5753231  32.7684879
  76.8812561  64.6063709   9.8948669  76.9020510  65.5454016   9.7104055
  77.1338558  64.1943312   9.0686429   0.4366006  11.6767848  59.2927504
   0.1382444  10.7678890  59.2592192   0.7710301  11.8516994  58.4130955
  44.5953894  17.2475111  39.0268946  44.4052362  18.1815362  38.9393091
  45.4397297  17.1330523  38.5907531  66.0860920   7.1977973  37.9022670
  66.2723398   6.4560223  37.3266673  66.2622881   7.9691392  37.3635483
  41.3666677  39.9258733   5.6893742  40.6804276  39.2778587   5.8487046
  41.0546589  40.4243803   4.9341416  17.5198603  74.9747801  38.3728719
  17.9912853  75.0348902  37.5419831  17.6982069  75.8073378  38.8102150
  55.2330589  64.8462629  11.1772323  55.4710722  65.7699203  11.0969889
  54.8295641  64.7771931  12.0424807  31.3553429   2.9435930  57.6567554
  31.2806964   2.0555907  58.0062008  30.9571838   3.4989929  58.3270025
  64.8930979  69.4733334  25.5794191  64.0016985  69.1247463  25.5680943
  64.9430418  70.0285912  24.8013282  76.2599850  19.4887280  64.2265701
  76.9764185  19.1226506  63.7079716  76.4815187  20.4151678  64.3207216
  28.6699677  16.4361417  18.1207061  29.3233323  17.1030152  18.3319545
  28.7102318  16.3547575  17.1678221  61.8489647  43.5057831  69.7371817
  62.5597620  43.7053108  69.1279316  62.2121572  42.8375483  70.3183699
  27.2493625  15.4541242  35.8436871  26.7002773  14.9801052  36.4682198
  27.6721621  14.7678554  35.3274417  64.7032404  11.5168226  62.3667955
  64.6991348  10.6687462  61.9229698  65.6280470  11.7598462  62.4104214
  79.2985630  57.4653673  61.7909527  78.4972620  57.0598316  62.1221542
  79.1780615  58.4010410  61.9528818  32.7693772  62.7187252  48.0007648
  33.2110238  63.5153294  48.2950497  32.7011347  62.8195047  47.0513344
  14.5499432  78.6386442  53.5217667  14.6384990  79.3700123  54.1329050
  13.6712706  78.2955885  53.6844921  36.1557794  26.5439296  56.9043446
  35.4011607  26.2644291  57.4226713  36.8063974  26.8114066  57.5534868
   0.9761846  77.6205301  32.7222323   0.8465716  78.2635164  33.4193707
   0.7267264  78.0818605  31.9214964  16.8828666  77.0270967  56.2675524
  16.4121377  77.0892668  57.0986843  17.0709252  77.9351568  56.0302973
  59.5827484  24.1870952  53.7501812  59.9380875  23.3203888  53.5532379
  60.2983522  24.6447396  54.1914320  65.0095749  13.0036020  20.4620028
  64.0992832  13.0085611  20.7579279  65.1501703  12.1151745  20.1346493
  14.5956969  72.2293806  29.5227575  14.1244614  73.0519199  29.6554279
  14.4317544  72.0044565  28.6069179  28.3807135  41.7823648  16.1857057
  28.2023120  42.0846415  17.0762312  27.9158258  40.9483671  16.1182189
  23.1958008  57.7798462   0.2975978  22.6760530  58.0593538   1.0512352
  24.0912056  57.7245808   0.6314084   6.5066689  64.8768902  53.0386972
   6.1375368  64.5469761  53.8579226   7.2322524  64.2828798  52.8465700
  45.3794861  71.7287493  21.0197258  44.9123001  72.4990797  20.6963658
  44.6970510  71.1787605  21.4044690  11.3715124  64.5445061  45.8826590
  12.1485353  65.0616837  46.0947800  11.6785657  63.9024067  45.2426100
  54.3020535   3.9920402  26.3798952  54.4594812   4.8780733  26.7060757
  53.7426138   3.5884035  27.0434761  69.2388535  30.5821300  65.3639126
  69.3141508  30.3638506  64.4349766  68.6873817  29.8899794  65.7286501
  48.6894894   8.5965931  37.0091796  48.1223059   8.0052578  36.5143466
  48.2045507   9.4211692  37.0429444  30.7978702  52.5680494  10.0865769
  31.7081499  52.4537086   9.8135406  30.4733348  53.2863426   9.5434761
  43.2746792  59.4928646  30.8371449  43.3529902  58.8927412  31.5787315
  42.8991413  58.9598799  30.1363373  62.4953413  16.6412520   5.8640409
  62.1708536  17.4492085   6.2617171  62.8890276  16.1580431   6.5905052
  36.6352463  71.9632053  14.4338965  37.3929954  71.4990330  14.7896898
  36.0479903  71.2690735  14.1346610  69.5425797  27.4128890  42.3954010
  69.3283176  28.3455801  42.4156904  68.7575722  26.9944358  42.0419979
  51.1978912  18.0706084  13.6795461  50.2744913  17.8790951  13.5155559
  51.3065672  18.9805198  13.4029913  53.4078741  39.4114447  22.9499173
  52.9865026  38.5711193  22.7695465  54.0893888  39.4859147  22.2819185
  55.4272318  17.8205764  22.3186803  55.9225559  18.5710311  22.6468635
  56.0892820  17.2466469  21.9332838  47.7335548   4.1120186   9.9824739
  47.8879404   4.9581274  10.4025877  46.8271589   4.1575462   9.6781605
  33.3142424   3.4764683   8.7013203  32.7716422   2.9700765   9.3057907
  33.6562586   4.1960356   9.2318678  13.8666701  63.7226629  39.3517447
  13.6038840  63.7655115  38.4323215  14.3679142  64.5254040  39.4952440
  22.6163816  61.1584044  19.9939692  22.3011947  61.8775654  19.4465256
  23.4729648  60.9369469  19.6286571  28.2503891  54.2571449  26.0026360
  28.6843514  53.5002279  26.3963223  27.8636479  54.7236824  26.7435837
  84.0292645   6.1713231  37.5190973  84.3409252   5.3012681  37.7682996
  84.6374035   6.7748922  37.9458356  17.5324225   5.9576070  65.9006882
  17.8353190   5.8605260  64.9978781  16.7592454   5.3959906  65.9556150
  45.7245016  23.7387729  31.2757206  45.3846979  24.2795253  30.5627298
  46.5078449  24.2007661  31.5743279  49.3788147  14.8594069  40.0804520
  49.7360563  14.1209245  40.5736589  50.0407696  15.5457699  40.1638412
  72.1808004   4.7927016  35.6027079  72.3217297   3.8931319  35.8979130
  73.0413771   5.0832695  35.3007007   2.3417293  25.6850481  42.8515196
   1.8150184  26.0153627  43.5793257   3.2468385  25.7822633  43.1474209
  34.0476179  81.5577412  42.9112339  34.3909883  80.7755375  43.3430815
  34.6962428  81.7639923  42.2381973  43.8953114  49.9460125  18.5133708
  43.7299776  49.5430326  19.3657231  43.0521774  50.3201962  18.2577610
  10.3708184  77.9001617  22.6806355  11.2112832  77.9977322  22.2330523
  10.4224646  78.5040760  23.4214830  58.4385347  18.7499058  27.9790854
  58.8837576  19.4105172  28.5097432  58.9131832  18.7506783  27.1478581
  70.7009602  67.4995279   4.7607362  71.0835743  66.6615105   4.5008022
  69.7776842  67.4265623   4.5189232   3.7421840  14.0245521   9.7610837
   3.3705154  13.2660913  10.2114534   3.7281644  14.7225451  10.4159439
  71.4448023  42.4914312  56.8467569  71.4015484  43.1774521  56.1806202
  70.5313635  42.2525692  57.0042419  24.4951034  15.6601107  49.1976213
  24.5314121  15.3847051  50.1136255  24.6966219  14.8670757  48.7009144
  78.7416029   4.8230413  48.6840773  78.6980629   4.0238181  48.1591225
  77.8406572   5.1457208  48.7042570  76.5145969  13.8912249  39.9517322
  76.1417866  13.4342122  39.1978216  75.9989977  13.5836554  40.6972408
  40.0003767  21.3495469  17.0590937  39.7235155  21.4333129  17.9715431
  40.3799534  22.2017336  16.8447745  50.7571602  66.6693783  36.0306573
  51.2884474  67.3492718  36.4450383  50.3000689  67.1215534  35.3215456
  37.6434684  23.1792426  46.6849041  36.7507839  23.2105064  46.3408566
  38.0501819  23.9862251  46.3693142  86.4351082  27.7364635   5.8111763
  85.9395123  26.9664025   5.5325812  86.5280819  28.2618546   5.0164735
   5.4376233  41.9240713  61.4178514   6.0542560  41.4731359  61.9946098
   4.8992661  42.4512959  62.0081377  64.0617132  15.6376398  68.1570244
  63.4522486  15.9358156  67.4818373  64.5382118  14.9154854  67.7475405
  29.7874308  72.4430418  13.4343755  29.7439623  73.2149363  12.8699994
  30.6633854  72.0868158  13.2859194  54.7154570  25.2041864  23.3719063
  54.0820408  25.8347940  23.0293441  55.5230808  25.7076168  23.4745669
  49.6653318   2.0483896  33.8611031  49.8747826   1.4930005  34.6120381
  50.2536917   1.7470466  33.1688237  24.8855901  15.3818202  29.1432858
  25.5572081  14.8344827  28.7363672  25.1819873  16.2788558  28.9893079
  80.8706951  17.0232928  68.0952311  81.6156292  16.4223194  68.1071138
  80.5534935  17.0294368  68.9983177  47.8260708  46.8339968   2.1308005
  47.9427958  47.0887995   3.0460516  47.8639412  45.8776093   2.1417330
  57.8780651  20.1625896  20.4227209  58.0817127  19.2778802  20.7261133
  57.4430656  20.0326157  19.5800388  53.2781172  37.6535535  67.9391289
  53.8412237  38.0040002  67.2489643  52.8948545  36.8637681  67.5575781
  42.6083899  61.5473366  13.7974954  41.7223644  61.4619589  14.1494906
  42.4923325  61.5212440  12.8477156   2.8841394  65.7945156  14.2776692
   2.9814178  64.8856735  14.5618701   3.5955703  66.2603378  14.7171128
  12.7592015  67.0386696  44.4664288  12.0410168  66.8694115  43.8566780
  13.2451475  66.2146282  44.4987917  62.4674129   1.5624309  10.3992486
  62.2318697   1.5759362  11.3269186  61.7271519   1.1330810   9.9704057
  34.6108437  29.2935371  51.2135553  34.5439816  28.3452725  51.3256073
  34.9733567  29.6076274  52.0419025  11.8514621  56.0224485  47.9635429
  12.7042472  56.4455175  47.8635359  12.0138621  55.1031733  47.7519178
  83.7984657  16.2080050  52.7956486  84.6241760  15.8225203  53.0886173
  83.5144520  16.7524290  53.5299301  40.2715731  67.3451471  22.0796704
  40.8665800  67.2268486  21.3392615  40.4136276  66.5727329  22.6268768
  47.2799206  18.8733268  39.3295646  48.1828308  19.1775393  39.2377043
  47.0969868  18.4150004  38.5093784  62.6215410  15.9776986  21.0947371
  62.9339647  16.7709935  20.6596446  61.6751432  15.9828198  20.9514308
  21.0972452  76.0009289  27.9441881  20.5334592  76.4116096  27.2886586
  21.4557528  76.7338324  28.4447432   6.6574949  77.5985956  46.4313078
   6.5097880  76.8023396  45.9210205   7.4485457  77.9823112  46.0528517
  54.1202402   6.6394091  13.7463999  55.0683165   6.7432314  13.6651540
  53.8982391   5.9601182  13.1096029  85.9226418   6.7871243  31.0589433
  85.9393406   5.8567894  31.2835097  85.9671879   7.2378951  31.9021821
  27.2189617  47.7195883  31.5309668  26.7820835  47.3667860  30.7557917
  27.1198392  47.0360565  32.1936798   4.9947187  79.4839764  28.7484312
   4.2957997  79.3115616  29.3793201   5.3350025  78.6175871  28.5252476
  46.5434313  15.2115965  40.4465055  47.4269152  15.3405130  40.1014471
  46.0108042  15.0184023  39.6750021  76.6964722  46.2370491  45.2630568
  77.5955105  45.9281063  45.1511717  76.7681551  46.9635010  45.8822203
  38.0986977  45.2798033  40.5567455  38.5780454  44.9259806  39.8075676
  37.8782368  44.5121098  41.0842705  18.2369375  31.5362215  49.2473269
  17.7417040  30.7284713  49.1112661  18.0676436  31.7701173  50.1599407
  12.2537601  79.2241907  56.7441559  12.0913053  79.6559477  55.9054518
  12.6635706  78.3915901  56.5095139  43.0727243  18.5163951  22.6228952
  43.5955286  18.1453180  23.3336759  43.7129116  18.7459946  21.9493365
  45.3804874  31.0877109  45.0384092  44.8239231  31.7791009  44.6800184
  45.3731155  31.2400246  45.9833860  51.6755342   0.4136448  46.7423248
  51.1436510   0.0609348  46.0289335  52.5719881   0.3886146  46.4076948
  31.3845992  27.9812932  41.1239052  31.3246131  28.8674307  41.4808321
  31.9634056  28.0668926  40.3663540  71.9037294   9.3740577  14.0630555
  71.5038061   8.6235350  13.6237252  71.1931038  10.0100458  14.1452968
  42.4581051   9.0288830  66.9790649  43.1849575   8.5486567  67.3756742
  42.8402519   9.4477814  66.2078810  22.2773862  28.8157845  30.3098583
  22.1121645  28.2008815  31.0245800  21.5211344  28.7191105  29.7310925
  60.5203676  58.1989765  50.1978016  59.8590708  58.5217953  49.5856714
  61.1894417  57.8019905  49.6401596  24.0125537  63.3238840  17.5388730
  23.3787274  63.9487076  17.8911340  24.7776651  63.4127140  18.1071556
   4.9428111  36.5283585  63.0328894   4.7213137  37.4145031  62.7466774
   4.1669729  36.2287688  63.5067606  39.7868633   4.9491027  47.4386215
  40.6399298   5.1654243  47.0621681  39.8655009   4.0311754  47.6983452
  76.5763378   8.1697696  43.0872202  77.1237230   8.0340075  42.3138046
  77.0608711   7.7529258  43.7997484  24.3192744  64.9969292  55.9093380
  24.6163058  64.0931797  56.0153484  23.4687567  64.9203539  55.4769182
  11.8752503  -0.1012849  50.8275843  11.4214063  -0.2386836  51.6590786
  12.5798368   0.5116057  51.0377169   1.0166369  71.3982868  39.5400119
   0.1358746  71.6315365  39.8334169   1.0646602  71.7262793  38.6420441
  24.7521567  12.7203166  22.7950883  25.1359677  13.3354270  23.4200358
  24.2601109  13.2722270  22.1872091  73.8889647  38.5738349  69.9302197
  73.0986452  38.1411600  70.2533579  73.7999535  39.4820476  70.2191162
  15.5608869  47.8173876   1.8195198  16.1668956  47.0877886   1.9486354
  16.0952449  48.5996723   1.9563523  69.7475338  76.8459368   1.6471688
  70.0216913  77.3013878   2.4431802  69.9482822  75.9254980   1.8166547
  60.9802389   9.5360655  58.1642723  61.0838079  10.3297818  57.6393700
  61.3978100   9.7452813  58.9997911  66.4046001  10.8467078  39.3426991
  66.4493418  10.9143996  38.3889461  65.7913256  10.1295614  39.5034099
  83.7008762  63.2817030  55.9255123  83.9947414  62.5130606  55.4365730
  84.4860077  63.5941076  56.3751793   5.4521364  33.9841151  68.9899540
   4.9621582  34.7532010  68.6989880   5.3259128  33.3414984  68.2918549
  41.1889839   2.4500795  13.8248110  42.0357800   2.8796870  13.9456666
  40.9941435   2.5622213  12.8943849  81.2485027  54.1182899  67.9031706
  81.1896229  54.4071198  66.9924879  81.2169743  54.9274349  68.4135818
  19.2236733  58.7198496  40.7598972  19.5058274  58.2094049  41.5188885
  18.5618293  58.1732702  40.3362846   8.1096864  65.6118488  30.6421089
   8.4593445  66.3305950  30.1154470   8.1740671  65.9231424  31.5449858
  78.2922983  18.7574649  12.0758128  79.0682840  18.2092619  11.9594097
  78.6234426  19.5579481  12.4829996  15.9632242  16.7132020  16.0790253
  15.4937446  16.8932724  16.8935156  16.8323386  17.0905030  16.2150967
   0.4561572   2.1548562  49.7128344   0.1091120   2.0787415  48.8240194
   0.1531647   3.0108070  50.0157785  14.6590793  65.2174664  34.6274662
  15.5320311  65.0002909  34.3003249  14.2058933  64.3758440  34.6777010
  12.5709486  64.0349913  54.2170715  11.8475509  63.9508009  54.8382330
  12.4575961  63.2985830  53.6161709  65.3714514  35.0968242   3.9545622
  65.0122643  35.5419803   4.7220618  65.0250292  34.2062521   4.0102673
   1.2118747   0.4374759  65.7605028   1.0011499   1.3442960  65.9829950
   0.7474673   0.2783565  64.9387741  28.8815641  67.5707674  36.9308543
  29.2588973  67.0473909  36.2237954  29.6136522  67.7327919  37.5258565
  23.1060553  38.7360311   7.3721409  23.1996560  37.8175640   7.6249009
  22.5791287  39.1241741   8.0706567  32.7086282  23.6927938  43.9225006
  33.5996175  23.4953070  44.2112303  32.4641657  22.9478812  43.3733416
  27.7847838  68.3924627  68.2839346  28.6333823  68.5806608  68.6847973
  27.1651173  68.4151888  69.0131283  59.7672844  15.4618406  26.5727091
  58.9538240  15.4912817  26.0690784  59.4874239  15.2765262  27.4691272
  55.8704376  18.0048490  28.2976961  55.6783009  17.0712721  28.2096624
  56.8243265  18.0595481  28.2399511  26.8328810  12.6611888  35.7019067
  27.2043467  11.9132710  35.2340770  26.3914442  13.1726241  35.0238204
  70.7585859  33.2967043  19.3578458  69.8908138  33.6806178  19.4836032
  71.2028694  33.8991785  18.7612987   4.5189422  30.1744246  42.5874758
   4.3109274  30.2693319  41.6579866   3.7307757  29.7900724  42.9712725
  59.8634195  15.7527733   5.8207518  60.1607418  15.7879734   6.7299235
  60.5516529  16.1978233   5.3262872  60.9814930   2.4830988   6.1354512
  61.2467337   3.1719202   6.7448807  61.7136908   1.8665665   6.1374372
   2.1011142  76.6511011  29.4307137   1.9753215  77.4960375  28.9988661
   3.0139279  76.6627932  29.7185779  81.0802555   9.8741829  43.3866835
  80.9805202  10.6152999  42.7891636  81.3197136   9.1405284  42.8204298
  33.6043239   5.7038248  36.8117809  34.3721414   5.9263474  37.3382521
  33.2193732   4.9488598  37.2568369  47.9401827  26.4124608  56.3014507
  47.3180580  25.6864715  56.2552404  48.6755514  26.1327982  55.7562447
  80.2488232  71.4544439  46.9704390  81.1927414  71.4877653  46.8150806
  80.1219654  71.9473886  47.7810860  40.1158333  59.1361141  51.9108486
  40.8999681  58.8951445  52.4041080  40.2200174  58.6977816  51.0663128
  39.1285205   4.8964468  28.5645604  38.8423538   4.0669912  28.9471102
  39.2451978   5.4787993  29.3152165  42.2870731  11.9340718  56.0217905
  42.1291590  12.8571475  55.8237314  41.4286613  11.5198898  55.9333897
  32.6743555  15.6968558   3.3455619  32.4692011  16.2312543   4.1127402
  33.4365511  16.1230993   2.9536361  37.7463055  74.6555424  17.5275016
  37.0085073  74.2581034  17.0649779  37.3896098  75.4624891  17.8987646
   6.8234676  79.8945141  38.2296705   6.4932746  79.0395880  38.5059047
   6.3865221  80.0616074  37.3945713  54.9643230  14.2470956   7.7290475
  54.6597958  13.6331201   7.0608211  55.9022617  14.3381238   7.5610524
  18.1218576  71.2260199  56.0782480  18.4472454  70.3392267  55.9234858
  17.4591398  71.1222124  56.7610836  44.7083855  27.6491189  20.8791924
  44.3701029  27.7785969  19.9931729  44.5889616  26.7143321  21.0469413
  28.4351730  81.2439823  49.2892885  28.6589932  81.5569496  50.1657534
  27.7555895  81.8461132  48.9862490  58.7112474   0.6039608   3.0574337
  59.4006300   0.3052222   3.6505109  58.2453918   1.2782130   3.5519993
  38.1904411  16.0966992  27.0595932  38.3989143  15.2610385  27.4772573
  38.8280082  16.1754394  26.3499880  24.9809694  25.9838295  20.3049326
  24.8658442  25.0383449  20.3999925  25.7569337  26.0762477  19.7521508
  51.0318899  12.4250519  20.9758759  51.3770866  12.4800324  20.0847840
  51.0509300  11.4906979  21.1828852  58.5348749   5.2753043  48.5884666
  58.9944696   5.6845599  49.3216228  59.1352892   4.5977357  48.2776022
  56.4820766  76.5431404  42.3768377  57.2306156  75.9775019  42.5665092
  56.8524504  77.2713327  41.8780470  26.6213250  43.9167070  13.0230582
  27.2009850  43.2393980  12.6745200  25.9178162  43.4313393  13.4540212
  85.3652096  29.0828419  35.0141501  85.7999897  28.3463216  34.5843458
  86.0520935  29.4928527  35.5398011  47.1195984  26.1374235  21.6478086
  46.3716602  25.5598497  21.8002295  46.7416239  27.0163846  21.6196251
  34.6299911  40.5964088  60.4906368  33.8354707  40.5914974  61.0244370
  34.5124364  39.8691487  59.8794889  47.4338818   7.6262861  27.7152872
  47.6566362   8.5175061  27.9842496  46.5380955   7.4986964  28.0275631
  53.0475855  12.9128706  67.2261047  52.6005936  13.4919894  66.6088104
  53.2697630  13.4775507  67.9663801  60.7872915  75.9249115  21.7974305
  60.8024073  75.8161211  22.7483082  60.2907228  76.7309952  21.6564441
  40.1226091  42.0071650  41.7449951  40.0296116  41.7503929  42.6624107
  39.2239618  42.0679188  41.4210033  12.6599765  63.5665894  58.1931829
  12.3162174  64.2676592  57.6395035  12.3962510  62.7602148  57.7499580
  62.0798206  30.2697229   9.7394639  61.8038416  31.1686611   9.5606458
  61.8676281  29.7902441   8.9386487  68.0191517  43.3080959  13.3264983
  67.3613787  42.6209784  13.4334207  68.6109066  42.9706287  12.6540565
  62.2493172  28.2611704  37.9833984  61.3916016  28.3052969  38.4060192
  62.7457047  28.9808059  38.3732128  58.9175415   1.3972044  23.7285638
  59.1514683   0.6433851  23.1870222  57.9895687   1.2711298  23.9265561
  44.3033743   4.4566366  40.0011015  43.5586739   4.0208921  40.4155684
  45.0627565   3.9383948  40.2675390  80.9024334  13.9232385  23.1973839
  80.6229305  14.3378782  22.3811817  80.9579945  14.6436369  23.8252139
  24.8090696  23.6888623  27.4709463  25.5068398  23.5045195  28.0997276
  24.0082097  23.6893773  27.9952145  42.2890520  32.5170660  24.5761108
  42.3716021  31.6712070  25.0164962  42.4072981  32.3162842  23.6477065
  58.9826775   1.4885175  14.9053752  58.7350559   0.8571589  14.2298746
  59.3126154   0.9514792  15.6257653  80.9798336   4.7034481   7.6106006
  80.3592777   4.0606266   7.9539943  80.4630089   5.5020326   7.5039119
  77.3653555  53.1841040  64.8841715  77.6679134  53.2385588  65.7906628
  76.5499783  52.6851368  64.9333858   3.6920410  62.3060131   3.1693754
   3.5555187  62.9411697   3.8723487   4.2516291  62.7614927   2.5403830
  56.9684219  14.8675835  49.4386196  56.5716600  15.6569386  49.8070383
  56.9860411  14.2462540  50.1665401  56.1653662  19.6878469  51.2528992
  56.9179964  19.2688060  51.6702557  56.4069366  19.7483170  50.3286600
  35.3544021  11.4996362  13.9472747  35.7065010  12.3185062  14.2961454
  35.7570291  11.4147425  13.0830324  11.9369900  14.7183096  31.9836807
  11.4964640  15.5114317  32.2888494  12.8692150  14.9030900  32.0978975
  59.3042517  26.8275237  17.4525392  58.6350298  26.9858289  18.1183565
  59.4514990  27.6845384  17.0524442  63.8210964   8.4794754   3.3916679
  64.1472340   7.9993832   2.6304990  64.5450354   9.0540749   3.6406305
  65.0917578  12.9384267   5.5150586  64.3583822  13.0579400   4.9116436
  65.6989384  13.6455727   5.2971011  19.4073021  61.0593987  63.2276201
  18.6863172  61.3458538  63.7882948  19.5672095  61.8018532  62.6450157
  11.6336036   6.4034766  17.6671076  11.8912196   7.3109388  17.5046945
  11.8854034   5.9367371  16.8702495  17.0225692  27.6850963  38.8085747
  17.2228873  26.7490983  38.8123798  17.2013080  27.9719257  39.7041273
  77.2663069  15.5187893  44.9371004  77.1380138  15.1931453  45.8280182
  78.1674290  15.2783799  44.7216606  63.4472752  31.3618851  19.0987515
  63.8028955  32.0391464  18.5233521  64.1152906  31.2467861  19.7745752
  55.3360796  21.1254144  63.1562281  55.2513027  21.7385435  63.8863754
  55.1073170  21.6408920  62.3828030  75.7244062  40.5824232  57.8778601
  74.7845697  40.4205751  57.7957344  76.0225153  39.9407244  58.5225201
   2.5375938  13.4680951  42.8759575   1.6297945  13.6858296  42.6644754
   2.9049796  13.1470382  42.0524359  66.3979626   2.8460765  14.0502214
  67.2952652   3.1786513  14.0720928  66.0427618   3.0583084  14.9133682
  32.7396631  77.2873259   1.3565825  32.4270892  76.7833900   0.6051987
  33.3156395  76.6843081   1.8265292   4.2735916  44.5851803  33.9676404
   4.3930620  45.1698971  34.7160149   4.9766853  44.8230267  33.3632231
  61.9542408  25.3224635   7.0450640  62.5395155  25.4593444   7.7900118
  62.4811792  24.8332667   6.4131993  29.3765616  66.0513115  12.0880294
  30.0219250  66.2379551  11.4061916  28.9799428  66.9007444  12.2813892
  72.3500109  21.2005162  31.9735694  72.7555656  22.0517468  32.1383834
  72.8198957  20.5960798  32.5481105   2.9833439  52.3828220  65.8288479
   2.9479781  52.3753500  66.7853642   2.8224349  51.4737177  65.5761147
   8.6260432  18.6115408  16.0161829   8.6429924  19.5476174  16.2154436
   9.3906188  18.4717011  15.4575229  63.5477781   9.2307019   8.0542296
  64.0263462   8.4372157   8.2941985  64.1602707   9.9437177   8.2350409
  66.8372536  39.7526431  53.9651060  66.3993645  40.5802822  54.1638422
  66.1364508  39.1008544  53.9817667  80.9954929  11.1711180  11.6553640
  80.1495171  11.0648918  11.2203169  81.6194248  11.2919128  10.9395766
  59.7365999  14.4360912  50.3752470  60.5483961  14.8624992  50.1006651
  59.0451002  14.9344313  49.9396753  61.0916758  17.6128614  25.6869698
  60.3679705  18.1442571  25.3551555  60.6862068  16.7801571  25.9286904
  68.3138990  77.4043846  66.3532448  68.9951658  77.9845715  66.0134077
  68.4876394  76.5607119  65.9357929  73.1118965  24.7228289  31.2615108
  73.4689617  25.6107378  31.2426877  73.1019020  24.4883180  32.1894860
  60.6020260  80.1592159  42.4003172  61.5215397  80.2423382  42.6529217
  60.1455784  80.8025455  42.9425573   3.1627619   9.9857450  17.1277308
   2.8113511   9.3566382  16.4976788   3.2422966  10.8012748  16.6329420
  54.8680305  25.6938791  69.8391247  54.9423075  26.1249185  70.6905460
  55.6374216  25.1265669  69.7899389  30.7661271  78.6807489  31.4563036
  31.1343503  77.8392458  31.1870074  29.8936462  78.4658432  31.7861891
  59.3308926   7.9763103  33.3757591  59.4356251   7.7949482  32.4417520
  58.6261129   8.6227226  33.4166718  55.4022026   5.7456988   8.7418348
  55.6062889   6.6561627   8.5282063  56.0403013   5.5087727   9.4148362
  55.6821060  10.1439035  29.9184656  55.7387447   9.2354494  29.6222639
  54.7431707  10.3271484  29.9509120  47.2633791  12.8973126  31.0895324
  46.3302040  12.8720689  30.8779430  47.5831747  13.6947215  30.6675124
  27.7037501  51.4498901  67.9348803  27.5879955  50.5978632  68.3554554
  27.8556681  51.2431240  67.0127058  13.7941062  23.9264345  40.5001163
  14.0935421  23.0439496  40.2815056  13.6668909  24.3529797  39.6527052
  60.6848383   4.5682612  29.7357249  61.3288212   4.9455801  29.1364336
  61.1827660   3.9382577  30.2566814  77.6426125  61.2208748  56.9880390
  77.0073366  60.5160236  57.1139145  77.4776316  61.8242311  57.7125931
  52.1551847   3.9206383   2.3273739  51.4854765   3.3005106   2.6157609
  51.8627882   4.7653341   2.6697534  85.1221943  61.8971395  50.7289314
  84.7451401  62.2373343  51.5403080  85.0966072  62.6382923  50.1237297
  47.8990316  60.3712273  18.3995843  48.6387682  60.2887011  17.7977419
  47.8592634  59.5262289  18.8475025  56.2414169   0.4337443  42.4970388
  56.0909557   1.2040404  41.9491005  55.9590292  -0.3037827  41.9561672
  50.2971172  73.3807421  25.8070803  50.6516171  73.0026293  26.6118121
  50.6724405  72.8475428  25.1063228  69.3625975  25.3077531  25.0490308
  70.2623606  25.5344748  25.2841043  69.1632652  25.8664966  24.2978287
  56.5152788  45.0715446  14.8679733  56.9321966  45.2294493  14.0209329
  57.0449591  45.5679369  15.4918826  67.5086355  30.5393386   2.6292351
  67.6645279  29.6717978   2.2560036  67.4031162  31.1116076   1.8692322
  36.0498977   7.4020571  67.0260143  35.9087682   6.5490896  66.6152096
  35.4656816   7.9950678  66.5535069  56.0098982  41.4975786  22.1217155
  55.5766344  41.3176107  22.9560566  56.3121080  40.6412125  21.8191552
  48.1441545  13.3611500  44.1106224  48.0847502  13.2149100  43.1665277
  49.0288496  13.0780077  44.3416548  70.3354073   5.8968902   7.5641578
  70.2470922   6.7970932   7.2510016  71.2763596   5.7801908   7.6954234
  71.5095997  23.0371451   9.8100978  72.2232389  23.4626222  10.2854025
  71.6396236  23.2985616   8.8985133  43.1427783  81.0622612  17.5629961
  42.7606362  81.7538308  18.1033051  43.7102240  81.5256219  16.9469357
  70.5451727  73.2813501  26.6403103  70.6607485  73.6285305  25.7558107
  71.3860846  73.4367275  27.0703745  74.0858603  41.8666744  53.2432795
  74.4009972  41.5602207  52.3929834  73.3875465  41.2543106  53.4747934
  71.7659616  34.9238229  57.5377655  70.9200811  34.9489594  57.9850721
  72.3338318  34.4272852  58.1270075  82.2090816  21.4514589  27.8273177
  82.9602146  21.2574434  27.2666192  82.4612904  21.1194658  28.6889458
   8.3096904   4.0201667  30.9640288   7.4081451   3.9917305  31.2844038
   8.5721654   3.1015190  30.9055042  69.7816658  11.6229045  66.2141085
  70.0682831  12.4071050  65.7460165  68.9679193  11.3683128  65.7791042
  79.8147345  60.3261375  31.4186001  80.3928185  61.0571384  31.2002254
  80.3582191  59.7400475  31.9452429  78.3262253   1.6879469  50.8534098
  77.5644922   2.1329220  51.2248707  78.2203817   1.7818238  49.9067211
  13.9409697  70.2172518  15.1073563  13.5769296  69.3905163  14.7907960
  13.2433808  70.8567524  14.9636710  60.5204296   9.4754523  21.0719109
  59.8173046   8.8631797  21.2886429  61.0661125   9.5014602  21.8579030
  39.2681718  22.4631882  30.0103641  38.9432931  21.9954777  29.2409921
  39.9987555  21.9301128  30.3239083  39.7705960  70.7384062  55.0971127
  39.6773434  69.7986984  54.9406385  39.9880385  70.8059835  56.0268354
   7.0749408  28.9822817  49.7070312   7.2811449  29.3919659  48.8668728
   7.1722269  28.0437303  49.5461226  68.7967920  64.3821001   3.2877728
  69.7406769  64.5380831   3.3190924  68.4348679  64.9690914   3.9516160
  42.6219034  22.7550650   4.4097197  42.4838018  23.3364534   3.6619580
  43.1775618  23.2582593   5.0049287  42.6622009   5.3170699   8.4231281
  41.8555307   5.2572024   7.9113364  42.4202013   5.8330703   9.1921604
  62.8250170   3.8967907  38.4573627  61.8690777   3.8696259  38.4165025
  63.0781889   3.0152425  38.7312388  79.1735268  24.6589947  28.7042141
  78.8161039  23.8892579  28.2615066  79.8451757  24.9884176  28.1070542
   3.3395824  32.2270846   9.1905910   2.8138286  33.0111933   9.0325171
   3.2373968  31.7056751   8.3943987  85.1394749   0.7813029  68.2621956
  84.5030117   1.0705526  68.9160156  85.8240986   0.3463030  68.7704325
  55.3813314  10.1285672  39.7252965  55.6595230  10.7136083  39.0206194
  56.1215639   9.5346004  39.8497415  66.2012625  24.6742749  31.0263109
  66.2213707  25.6091809  30.8219123  66.8571472  24.2880487  30.4459000
   3.9062104   5.9152913  26.1019969   3.6212522   6.3853520  25.3183675
   3.8458058   4.9906668  25.8618879  67.6530027  17.5504732  35.0309515
  68.2974339  18.0286121  35.5527997  67.7993584  16.6310370  35.2533245
  37.7047920  21.9474149  25.6151652  37.2527266  21.1446714  25.8749223
  38.5558581  21.6497278  25.2937555  44.6032286  16.6944695  12.9798961
  45.2561522  16.3757288  13.6030543  45.0754070  17.3305535  12.4426115
  60.7171011  13.9717507  24.5731473  60.4001522  14.3141007  25.4089522
  61.6708708  13.9982927  24.6496606  65.9565926  17.5365090  56.6774464
  66.4064932  18.2371378  57.1496058  66.3212729  16.7298162  57.0414305
   8.1664121  77.3222589  24.4605231   7.4355769  77.1072292  23.8809776
   8.8845873  77.5444794  23.8680077  43.8523293   9.7992873  11.2559628
  43.1810093  10.4739654  11.3577867  44.5979404  10.2595317  10.8706415
  66.1128569  36.3580751  21.3312483  65.5519295  37.0060325  21.7575574
  65.6295919  36.1029458  20.5453753   5.1025325  14.7472084  17.2034478
   5.7358754  14.7419763  17.9211390   5.5531919  14.3064868  16.4830983
  55.2122831  18.0351853  25.5598664  55.9658289  17.5627279  25.2060461
  55.4075098  18.1339455  26.4917278  80.0728321  27.5221944  43.5458326
  80.4300117  28.3732367  43.2920885  80.5542469  26.8912172  43.0107212
  30.9583902  22.3248720  32.5378466  31.7478895  22.7769804  32.2403264
  30.8740902  22.5711560  33.4589720   8.4573591  47.9998159  35.0148153
   8.0760437  47.9834843  34.1369987   9.2434996  47.4582624  34.9445701
  53.2693338  78.4617138  56.1899042  52.3866701  78.2676792  55.8744812
  53.1770706  78.5167646  57.1410561  77.0741367  24.5080066   1.0082091
  76.2399960  24.1923690   1.3557847  77.5837326  24.7419119   1.7839895
   6.4600796   8.2985550  30.2850270   5.8833480   7.5364143  30.2325535
   6.3627917   8.6110544  31.1845326  77.4646902  51.8210983  15.7518637
  77.8820610  51.0371113  15.3949404  78.0916786  52.1552896  16.3932967
  63.7234879  35.5959129  24.3369603  62.9241943  35.9547830  24.7224212
  64.1390133  36.3437247  23.9076042  86.7052460   7.6151192  60.6665134
  85.7835579   7.3612350  60.6189728  86.7349720   8.2816935  61.3528252
  48.8831997  22.9499698  17.4579573  49.7724390  22.7572274  17.7551651
  48.6217213  23.7174845  17.9666638  65.3071737  16.6775489  31.1389065
  64.7344017  16.7651796  31.9008017  65.9752750  17.3517454  31.2627172
  33.1350207  14.9526048  14.0438628  33.8465095  15.0553024  14.6758986
  33.5705519  14.6865261  13.2340813  59.7797298   2.4098366  55.6831455
  60.5084562   2.3662016  55.0640440  59.4820166   3.3184895  55.6389856
  74.8355389  40.7415962  13.7588596  75.2006149  41.4616251  14.2731631
  75.5334711  40.5058956  13.1476581  75.7845831  45.5522633  61.8553495
  75.6339169  44.7385073  62.3363161  74.9557018  46.0264301  61.9212770
  43.9462662  17.3334527  41.8502235  43.2280016  17.9058325  41.5805769
  44.4283867  17.1572936  41.0422850  48.5732889   3.4773502  13.7935364
  48.9361286   3.0574712  14.5734584  49.1553926   3.2071880  13.0833268
   6.2000060   4.0005645  51.5073633   5.3027672   3.8909787  51.1924267
   6.2341815   3.4892949  52.3158598  63.7995863   8.2940835  16.5191019
  62.8646135   8.1216985  16.6302049  64.1436291   7.4975204  16.1149347
  80.1008129  52.7027035  27.0223880  79.7465706  53.5882187  27.1036434
  79.7274685  52.2263956  27.7639914   2.5222281  42.5483704  50.7047224
   1.9222486  42.3895836  49.9759960   1.9509445  42.7512074  51.4454794
  82.1944523  52.3412514  49.5483685  82.4853611  52.6380491  50.4106379
  82.8948784  51.7636824  49.2449808  65.0181532   8.6157936  40.0082874
  65.2714539   7.8344762  39.5167446  64.1033506   8.4635288  40.2453184
  20.2832890  11.3711691   3.0128080  19.9128616  11.2119532   3.8809466
  21.1562181  11.7237079   3.1858528  55.4405308   9.4182879  67.4885035
  55.4537821   8.5991794  66.9934082  54.6593475   9.3535006  68.0378532
  70.9952593  29.3808556  44.9198771  70.3353119  29.7736216  44.3485308
  70.9345722  28.4416199  44.7455740  76.7142820  41.9983625   8.9231700
  77.6036310  41.9477129   9.2734927  76.4941359  41.0947037   8.6969674
  75.0355101  49.3674946  29.5382547  75.8553457  49.1673756  29.9899817
  75.0911760  48.8825512  28.7148714  67.4949598  13.1288981  24.8268557
  67.3473358  12.3620141  25.3803253  67.9377747  12.7832580  24.0518212
  53.2061768  31.9303656  12.5321543  53.1719065  31.2360620  11.8741250
  53.8146877  31.6028166  13.1944704  74.1528225  37.6744723  61.2695980
  73.6697149  37.6396537  60.4439926  74.7869253  38.3808589  61.1464453
  83.9341736  29.8276258  53.8184786  83.0586624  29.4596338  53.6989689
  83.9165497  30.2072573  54.6970034  79.4001245  15.1161695  21.3492584
  78.5671282  15.5296397  21.5759492  79.6560812  15.5294371  20.5246830
   3.2971102  64.9576616  17.4054730   4.1672093  65.3541899  17.3615956
   3.2548034  64.3873882  16.6378605   5.6417316  50.8849907  21.5813041
   4.9936008  50.9320116  22.2841191   6.1890000  50.1337242  21.8100476
  16.3685942  32.1138859  15.2527356  17.1379042  32.4147058  15.7363689
  15.7565331  31.8272686  15.9305739  12.4804902  47.5883341  63.5934782
  12.0796907  46.8606567  64.0689564  13.3017159  47.2305965  63.2560730
  12.2343624  44.6657944  33.7348223  12.7297366  45.2518892  33.1626940
  12.6395750  43.8079739  33.6076331  85.9328556   7.6732105  50.5076647
  85.5605030   6.9399780  50.9975195  85.2047729   8.0043346  49.9818468
  24.9475169  78.4979916  30.0410199  25.8901215  78.4713697  30.2053928
  24.8725939  78.5963106  29.0918326   5.7727700  63.9697838  30.1545501
   5.0087678  64.4801903  29.8861909   6.4408177  64.6255732  30.3542542
   7.3326600  26.2248635  49.0837955   6.4342725  25.9464765  48.9059401
   7.8345603  25.9086514  48.3325720  50.1785135  26.9102740  16.2793183
  50.9579706  27.3713613  16.5892780  49.4464350  27.4496293  16.5782988
  45.4345560  25.5744123  29.3612099  45.0416565  25.6623077  28.4928012
  45.4406404  26.4647698  29.7125769   8.5218489  43.6893606  44.2744637
   8.5319728  44.4324780  43.6712122   9.3948603  43.6876059  44.6669912
  86.0216141  48.6927271  53.7590742  86.3466263  49.5906973  53.8242149
  86.3958073  48.3611965  52.9428053  55.8813143  56.2351799  10.4415452
  55.2036333  56.8917561  10.6024575  55.4629850  55.5954361   9.8653853
  73.0018473  65.2282286   6.2531012  72.8642321  65.8000278   7.0083106
  72.3128986  64.5675278   6.3242310  56.3654280  14.4311213  36.9794178
  55.9144688  15.2532589  36.7871785  57.2911024  14.6705592  37.0245290
  82.1860695  76.3790274  29.4140196  82.6037502  76.2943268  28.5569334
  81.4791584  77.0091867  29.2747355  69.8349524  20.2500701  26.0802531
  70.6244326  20.6856728  26.4015055  70.0490236  19.3174446  26.1051250
   8.5313809  31.9222140  16.7146516   8.3358097  32.5587249  17.4022841
   8.2637441  32.3554134  15.9041333  63.4910154   3.7943995   9.1219550
  64.3974352   3.7242135   9.4214714  63.0483198   3.0452240   9.5206875
  78.1758499  45.1544809  53.8784933  77.5549316  44.5562124  54.2941427
  77.6290417  45.8454847  53.5046673  72.7438927  66.2145996  39.6489453
  72.2562313  65.4541445  39.9653697  72.3764372  66.9535160  40.1339340
  82.1730995  43.6379194  20.3425908  82.3965740  44.4162273  20.8530140
  83.0043602  43.1759405  20.2339244   8.1744748  34.6799016  29.1984224
   7.6037073  34.7236705  29.9655843   7.5826877  34.7841954  28.4533429
   0.7817814  61.5108776  48.8149405  -0.1002280  61.8639565  48.6982012
   0.8100965  60.7433939  48.2436275   9.0635151  43.4414577  29.4821453
   9.1697490  43.6023092  28.5445571   8.2841611  43.9417171  29.7241855
  73.9346552  21.9374275  49.9370432  74.4092512  22.6126027  49.4521427
  74.3521690  21.1166906  49.6756887  60.7350588  15.5881941   8.3391458
  60.1656675  16.2753081   8.6854059  61.6209173  15.9346044   8.4463394
   4.3933189  31.1724520  37.8678870   3.7396461  31.6442394  37.3517871
   5.2080834  31.6521692  37.7186823  60.8117914  35.2292228   0.5990731
  61.3386774  36.0109949   0.7647697  61.4534998  34.5306706   0.4707697
  16.7808914  45.2385378  17.6973724  16.5941215  45.8857918  17.0173657
  15.9555185  45.1461077  18.1732380  79.0684748  24.5157647  21.8484783
  79.5031404  24.1448307  22.6164007  79.0956497  25.4618263  21.9915318
  57.6220942  14.9758482  46.6382790  57.1846581  14.3862164  46.0240984
  57.3358583  14.6776998  47.5016499  70.1836777   9.1236889  16.7849267
  69.4515657   8.5527956  16.5518498  70.2728653   9.7157860  16.0381353
  68.7892866  52.2440386  36.7486405  69.5879650  52.4961424  37.2120881
  68.8580227  52.6791382  35.8988190   7.4383330  50.0759172  44.4620514
   7.9806763  49.7639751  45.1864719   7.0128804  49.2876387  44.1246557
  72.3467493  17.5058246  64.7099829  71.5404034  17.0751178  64.4262028
  72.0873642  18.4112632  64.8806667  54.5786905   7.2193664   2.4960738
  55.4076815   6.7511249   2.5948307  54.3964148   7.5701469   3.3678317
  13.5120094  17.5236583  14.4491398  13.7420261  17.9927611  13.6470997
  14.3120193  17.5407577  14.9744225  14.9491119   6.5464890  69.1030407
  14.5682764   7.3852199  69.3632793  15.8942437   6.6801602  69.1743755
  74.1032887  51.9821215  30.1685691  74.6949625  51.2367058  30.0660634
  73.3750105  51.7929745  29.5769024  71.0161352  11.4246166  17.9998636
  70.9930229  10.5299568  17.6603329  71.8130541  11.8017399  17.6271296
   6.8493903   6.7349732  19.5550251   6.1845523   6.5873414  20.2276516
   6.7725497   7.6650852  19.3423772  66.8304205  47.0943737  34.3631697
  67.5935507  47.3066711  33.8257742  66.3666487  46.4211607  33.8652468
  41.8511724  81.0272217  30.5206561  41.4657879  80.4721069  29.8427510
  41.1809635  81.6867352  30.6998014  76.4190245  69.6984053  32.9731917
  75.8299732  70.2583933  32.4675560  77.2897863  70.0639343  32.8170156
  54.8405361  17.7048194  39.5247698  54.1548347  17.2455359  39.0398932
  54.9941492  17.1598566  40.2965546  33.4793758  72.4850416  46.8976498
  33.2818651  72.7622795  47.7922773  32.6955914  72.0143127  46.6142225
  80.5350685  37.5937724  57.5378942  81.4610958  37.8078437  57.4243641
  80.1312542  38.4163427  57.8145552   2.2149616  13.6279774  28.1936908
   1.3815045  13.8662887  28.5996318   2.3201098  14.2540276  27.4772835
  71.2230158  18.1855047  30.2697897  71.7235136  18.1290054  31.0837555
  70.4477978  17.6465881  30.4273963  85.9995270  64.2174244  56.9912100
  86.7805672  63.6640739  56.9873285  86.3207436  65.0867987  56.7519569
   3.3548224  27.9830718  33.0634475   3.6709201  28.8865733  33.0628729
   2.9130161  27.8844285  33.9068389  58.1501007  17.0492375  32.1945930
  57.4456310  17.6849437  32.3204207  58.9257622  17.4761665  32.5583386
  51.1844873  70.5865335  60.5073071  51.4757967  71.4797926  60.3243923
  51.9916010  70.0728226  60.5373955  34.5250487  11.7759490  31.5797496
  34.4908452  11.2643766  32.3880529  35.2337217  12.4032176  31.7231035
   5.8858830  40.2642632  25.9893870   5.1499224  40.3598070  25.3848481
   6.5987408  39.9262118  25.4473639  18.9603329  48.4157133  27.2330594
  18.0578172  48.1034470  27.2977567  19.0916157  48.9348459  28.0264664
  33.4798408   0.3802314   8.7173885  34.1158390   1.0906572   8.8012546
  33.4303045   0.2129761   7.7762175  77.6675987  31.4996314  19.7202456
  77.8546572  31.5655446  20.6566739  76.7219353  31.3587713  19.6742404
  12.0000637  48.8358116   5.7846439  12.9272616  48.6264944   5.6718540
  11.9798183  49.7875643   5.8845854  54.6304083  72.0368528  28.2998872
  54.1601372  72.5549126  28.9531040  54.1952610  71.1843634  28.3117342
  80.1998329  30.2013850  36.0986495  80.4453087  29.3638825  35.7055044
  79.4005108  30.4569769  35.6382322   9.5422477  39.5242023  50.9956503
   8.7129247  39.0613794  50.8762741   9.4160372  40.3610563  50.5484629
  53.1270647  77.5061750  23.3343148  53.1680918  76.6278076  23.7124920
  53.7549973  78.0166292  23.8455558  71.4600658  52.3179150  16.6138482
  70.9817839  52.8146744  15.9499907  70.7770586  51.9055939  17.1427393
  47.4007463  48.3187914  17.2128260  47.0048761  48.7406778  16.4502430
  48.3307981  48.2553291  16.9955504  81.1967754  76.7175388   0.9347782
  81.4510632  75.8647823   0.5821071  80.2431774  76.7355299   0.8537667
  61.0778427  10.5409455  16.0279834  60.6099272  11.3565409  16.2071204
  60.4129791   9.8583907  16.1191201  26.7249656  71.0278130  64.6547890
  27.4266911  71.1877203  65.2858543  26.1224127  70.4400015  65.1104641
  61.1379290   7.3888373  16.5627789  60.3172112   7.7202082  16.9272697
  60.9228373   7.1584070  15.6589711  76.4860010  58.5364342  49.6701717
  76.5835428  58.1494141  48.8001537  76.6579390  57.8141260  50.2742767
   0.6565705  71.4615679  43.8478041   0.8212447  71.5739155  44.7840166
   1.5267342  71.4683342  43.4490538  12.4645340  58.8400745  51.5021276
  11.7015791  58.3887863  51.8633366  12.8230882  59.3327618  52.2403240
  73.4838772  44.1774893   8.7404984  73.0409622  44.2481709   9.5861101
  73.9628935  43.3502150   8.7894309  66.1108923  52.8119087  38.0895472
  65.8872414  51.8933964  38.2396960  67.0377064  52.7968025  37.8507543
  76.8760681  34.8769307  28.8141870  76.5675974  35.0537467  27.9254746
  76.9803429  35.7429910  29.2082691  71.5855646  40.5904293  52.6877451
  71.0868311  39.8666692  53.0667830  70.9763479  41.0082006  52.0790148
   7.4781209   5.3042811  24.4351482   8.2486939   4.8064485  24.7082996
   6.7665434   4.6640566  24.4363832  30.5810404  59.6512318  13.7029469
  31.0538650  59.1301155  14.3518746  30.6728125  60.5539608  14.0077186
  69.8995829  38.8753700  53.8504839  69.0391779  39.1906142  54.1271639
  70.1744461  38.2836199  54.5508480  12.8591847  36.5500283  21.9895434
  13.0415690  36.8913746  22.8650141  11.9400167  36.7674804  21.8343735
   2.2985627  74.6865129  55.5637789   3.2486826  74.7073221  55.4494476
   2.0129918  75.5766106  55.3578472  35.6198812  19.7324860   0.6993277
  36.1731434  18.9953411   0.4409663  36.0669184  20.1142573   1.4547342
  54.7973919  41.2186337  12.7704859  54.5088339  42.1308994  12.7975154
  54.8349857  41.0068512  11.8377650  71.8712664  58.6303663  35.9838128
  71.4812326  59.5042133  35.9616780  72.5420284  58.6846352  36.6645217
  76.0280704  56.0895729  42.8478384  75.8381796  57.0268631  42.8071213
  76.6266632  55.9345055  42.1171713  69.2477942  59.2161179  66.2308264
  69.6117592  59.1176367  67.1106339  68.5263634  58.5878468  66.1983728
  20.2530169  33.1218815  70.6675434  21.0693026  33.4605932  70.2998686
  19.5973611  33.2906055  69.9908733  83.7714100  70.4847956  27.5435877
  84.4346142  70.6089306  28.2225394  83.9169502  71.2064457  26.9318080
  78.3917141  49.3385553  14.8959613  78.9001131  49.4176340  14.0888000
  78.1186008  48.4214163  14.9181223  77.6127005  74.3626738  13.0219853
  78.4996176  74.3002748  12.6674211  77.1263599  74.8600769  12.3644936
  71.2890530  76.6547251  55.4978991  70.4981232  76.8701077  55.9921360
  71.3078213  77.2938347  54.7855616  78.0800104  33.3717537  12.2235620
  78.5455179  34.1548538  12.5173092  78.3290625  32.6948810  12.8528857
  23.5190845  51.9448805  52.4285793  23.5598946  51.8092585  53.3752441
  22.6329970  51.6760302  52.1860886  67.3269796  71.9133854  23.0054188
  66.3916779  71.8257141  22.8216887  67.3674011  72.1617222  23.9289570
  32.0008945  11.1181509  34.9922705  31.5600085  11.7508435  35.5593252
  31.8050098  10.2674282  35.3848672  63.5908175  54.9262571  45.6302977
  62.9109287  55.3858757  46.1229801  63.2821989  54.9420309  44.7243547
  23.1165314  66.2495089  38.1411982  23.5082221  66.0240650  38.9849877
  22.2250247  66.5235090  38.3565426  57.3618126  59.8384476  39.2314768
  57.9850197  59.6401691  39.9304223  57.8131628  59.5803499  38.4278011
  45.1377583   8.3943194  67.2078419  45.7712841   8.5049266  67.9168129
  45.1941109   9.2081749  66.7071438  69.5520544  43.8538456  43.0933952
  70.1577806  44.3259859  43.6647177  69.9451542  42.9870367  42.9916668
  74.8478699  46.3673592  43.1645584  75.4049253  46.2788105  42.3912001
  75.4612637  46.4065075  43.8983536  43.2645464   5.3959239  12.5843990
  43.1837177   4.5282924  12.1882749  42.9308844   5.9958172  11.9172955
  80.8541203  31.3535929  62.2780085  81.5712643  31.2945008  61.6467905
  81.2871456  31.4937472  63.1200743  70.2421713  45.2675343  28.0869341
  70.3445435  45.7421350  28.9118624  70.3320026  45.9395456  27.4112439
  71.1695719  23.2484365  40.2051115  71.4263964  24.1267395  39.9242997
  70.2483130  23.3351111  40.4500628  61.3974714  29.4709563  12.4150717
  60.4800987  29.2015147  12.4604940  61.5621805  29.6036720  11.4815354
  82.5680542   5.8630550  30.3656888  81.9877148   5.9374374  31.1232543
  82.8691292   6.7575073  30.2058840   3.4864694  22.8388333  45.9205246
   4.1507149  22.2244191  45.6082678   2.6592076  22.4818516  45.5973625
  33.5771537   9.7943878  69.4629574  33.2676387   8.9366430  69.7539997
  33.2902789   9.8560333  68.5518360  69.2246056  41.4444971  35.6434298
  69.9462080  41.3820124  36.2692237  68.9328718  40.5407953  35.5232382
  53.4998322   3.4143397  67.1342611  53.7064505   2.4872825  67.2530270
  52.5474834   3.4602293  67.2189093  80.3198910  17.2221482  11.6583228
  80.4653263  16.3026333  11.8809712  80.8211994  17.3560011  10.8539569
  85.5284214  58.1983185  30.5293941  85.3992462  58.2727957  31.4749074
  86.4527512  57.9698229  30.4312015  83.1153679  64.4651318  35.3079677
  82.9543209  65.4078627  35.2686024  83.7693310  64.3052483  34.6275258
  16.5066600  20.7793713  13.9918625  16.1272001  20.0130081  13.5618246
  16.5621400  21.4390206  13.3004761  77.9522038  67.1346903  32.4758840
  77.9955053  67.8237104  33.1389141  78.6520386  67.3509312  31.8596840
  56.2483692  79.1495037  52.4467325  56.2237740  79.4630337  51.5426731
  56.8345022  79.7587204  52.8956604  63.2801723  31.8046403  12.0811176
  63.7579346  32.3085952  11.4223266  63.0159616  31.0051322  11.6259110
   7.9656780  14.7964728   2.0812947   8.8135177  14.9517334   1.6650081
   7.3842913  15.4493284   1.6914228  11.6893959  46.3679314  19.9100304
  11.3204575  47.1310186  20.3547931  10.9681809  45.7395935  19.8743498
  76.8838596  51.9422293  28.7270784  76.3061523  52.4957895  29.2524862
  76.7195654  52.2137451  27.8240180  78.5051394  33.0581951  52.7034330
  77.9886770  32.5511670  52.0769978  78.0481768  33.8968420  52.7673626
  71.1650276  23.4344935  47.5612020  71.4626312  22.6681876  48.0515432
  70.3863573  23.7322474  48.0315733   9.3076950  24.1300750  23.8601041
   9.1715622  24.5849204  24.6912575   9.0456319  24.7652912  23.1937289
  72.7054524  31.7021130  -0.1270492  72.7320814  32.6587771  -0.1091678
  72.9223811  31.4397095   0.7675545   2.7855596  52.5999117  46.3870096
   3.3282194  53.2216597  46.8719673   3.3507982  52.2896194  45.6795788
  14.1414475  28.9426589   0.8418660  14.1544509  29.5999122   1.5376246
  15.0084937  29.0014505   0.4406105  68.9065599  54.0060854  34.2188501
  69.7363138  54.1248941  33.7566590  68.4241295  54.8168659  34.0572095
  26.0008049   5.1465905  33.3282948  25.9903193   5.2620631  32.3781443
  25.1588559   5.4952127  33.6212420   7.6569247  68.2446146  48.1992769
   8.3107340  67.5718927  48.0089903   6.8766195  67.9619455  47.7223539
  35.5057311  31.1591315   6.6625631  36.3779187  31.5456486   6.5842915
  35.0568295  31.4158320   5.8570683  49.4786358  73.6943388  55.8026361
  49.6173716  74.2300415  55.0216055  50.2800655  73.1772900  55.8838940
  35.0366926   0.2371708  14.6363544  34.2257023   0.3089206  14.1329885
  34.7487688   0.1785792  15.5473423   7.0137995  37.2241879  67.8532362
   6.8626112  37.8231335  68.5844278   6.2284434  37.3040557  67.3118782
  51.9491863  16.6625798  69.3173313  51.7132521  17.4158084  68.7758398
  52.2977924  17.0459723  70.1221371  40.4808569  72.3823929  17.1172237
  41.2998009  72.6435709  16.6961014  40.7232475  72.2121906  18.0274475
  55.4844522   4.5175126  51.6418791  56.4206982   4.6814474  51.5287304
  55.0577497   5.1862592  51.1062193  70.8371210  10.5697441  39.3077278
  70.1910973  11.2278438  39.5642281  71.1751938  10.2302635  40.1363993
  57.9119921  43.5298491   7.9275972  58.7340641  43.8441086   7.5512058
  57.2533464  44.1509771   7.6167601  48.9281559   5.7557315   1.9676931
  48.4835243   6.5943271   1.8440466  49.7949171   5.9907532   2.2989424
  40.7258987  48.2688093   1.6421951  40.3045225  47.9194403   0.8569460
  41.6132450  47.9107141   1.6173120  68.2096910  21.5379596  46.6131687
  68.3106613  20.5978489  46.4640760  68.3848953  21.9358802  45.7604122
  64.8239231  59.5848513  52.8333092  65.4262638  59.9919796  52.2106791
  65.3894758  59.2470884  53.5277843  69.6506310  75.4671860  18.1693411
  68.8468599  75.3750467  18.6809039  70.3527546  75.4392099  18.8193214
  49.5239210  28.4844565  64.1214609  49.2833090  29.0198183  63.3653355
  48.7506914  28.5050607  64.6853065  12.9090512  63.3728886  21.5701318
  12.1523571  63.5075378  20.9995914  13.0553722  62.4270630  21.5546823
  78.8113928  58.9020538  36.0332656  79.4067383  58.9334345  35.2843952
  78.3977604  59.7651672  36.0467434  40.2100325   1.0644324  69.4248772
  40.4916048   0.7116811  68.5807705  41.0229158   1.3205814  69.8605919
  68.9510107  56.5417337  43.1590176  69.1419649  56.5906048  44.0957022
  68.0315828  56.7984247  43.0883026  59.4580269  63.1606340  25.2638650
  60.3280640  63.4610653  25.5265665  59.3195105  63.5525990  24.4016552
  38.0776572   2.0300230  20.2569985  38.9590716   2.3167908  20.4959607
  38.2057071   1.1693678  19.8581159  83.9495754  25.4992557  64.0834618
  84.6920395  25.4366040  63.4825802  84.3261433  25.3329849  64.9476290
  85.6481361  71.3122940  55.2351570  86.1982250  72.0683527  55.4401350
  85.9937859  70.9824514  54.4057226  68.2750082  62.5752687  33.0337811
  68.6876011  63.4367657  32.9719925  67.5163698  62.7131605  33.6009574
  51.1977673  76.6889524  27.6838875  51.6582060  75.8839893  27.4466848
  50.9587526  76.5663195  28.6026168  62.4975300  56.2542295  50.8590841
  62.0887995  56.1067677  50.0061893  62.5778532  55.3800058  51.2405443
  23.8477969   2.1263431  66.2205458  24.1583252   2.2076955  65.3187752
  23.4276438   2.9661992  66.4058638  43.8864899   5.6773555   4.4281894
  43.4294510   4.8805204   4.6972689  44.7492981   5.3746015   4.1451097
   7.4711055  40.7264423  20.3850508   8.3298683  40.3294897  20.2394938
   7.2655255  40.5245352  21.2978482  52.7609873  72.3463726  40.7292557
  51.8465567  72.3631477  41.0116911  53.2372427  71.9927073  41.4804792
  69.5854139  62.3284483  59.5043325  69.6401548  62.5040627  60.4436922
  69.7670937  61.3920259  59.4247532  84.1355133  60.4579926  27.3878741
  84.9685860  60.7458878  27.0145941  84.1110420  60.8589745  28.2566929
  76.8243837  80.6668663  39.0835476  77.2012091  81.2317085  38.4088683
  76.5371561  79.8864412  38.6095572  60.2534962  25.3281927  58.0497885
  59.4243336  24.8837161  57.8732586  60.3211021  25.3386664  59.0045404
  82.7926254  39.4187927   4.6587911  82.1812439  38.7131476   4.8697612
  82.5733852  40.1178265   5.2748400  46.0071087  77.3072338  36.3079238
  45.1121426  77.0005989  36.4537024  46.1579084  77.1701241  35.3726745
   3.3307585  17.9217958  33.0653000   2.6252985  18.5672379  33.0210066
   2.9206741  17.1443951  33.4443903  71.1769438  34.0984416  37.4053454
  71.8589020  34.5125461  37.9341912  70.4010057  34.1069341  37.9657769
  63.3371067  53.8007116  51.9408751  63.2499313  52.9608727  52.3917675
  64.2766428  53.9832878  51.9541359  10.3509057  40.2580070   1.0822247
  10.6888223  39.3930244   0.8501631  10.5813169  40.8129644   0.3371318
  75.5373716  33.4596300  38.7965655  75.4609776  33.2904935  37.8575301
  74.7171926  33.8949370  39.0290308  58.9588785   9.1761887   0.3828447
  58.4865808   9.0506005   1.2058835  59.8797226   9.2231739   0.6398851
  82.1807480  53.1383514  63.7138462  81.5209103  53.8177967  63.5753107
  81.7983150  52.5649548  64.3780708  40.1501226  25.6323242  69.2194128
  39.4211340  25.7588315  68.6121178  40.9083891  25.9963870  68.7625504
  28.8600183  71.7332458  40.0504923  28.6018586  72.2963285  40.7802343
  29.2720437  72.3276281  39.4234514  79.6673536  44.9587297  20.4876232
  79.2769098  44.0968466  20.3429031  79.7231674  45.0395679  21.4397693
  81.5492916  77.5189114   8.5066724  82.1075058  77.6392460   7.7384609
  81.7172146  76.6189528   8.7861544  22.7875829  46.7619133  52.1396208
  23.3056307  47.4367332  51.7009020  23.0777574  45.9409523  51.7420578
  60.4762077   3.1583428  65.7631350  61.4058399   2.9414099  65.8335209
  60.1991320   2.7600724  64.9380016  15.0684404  47.9982281  30.5423522
  14.4898272  47.9480457  29.7814846  15.8311760  48.4858942  30.2314711
  35.1266408  67.9337454  18.5595191  35.9563327  67.4912739  18.7385762
  34.6779656  67.9526377  19.4048381  15.7636487  33.0663729  58.7536955
  14.9791467  32.7556634  59.2056322  16.2725008  33.5082006  59.4334650
  52.6360989  26.5841651  68.3412266  51.8971491  26.8456960  68.8905764
  53.1780005  26.0395074  68.9121294   1.6452275  73.5155964  27.1057749
   2.3069808  73.5575485  27.7961040   1.9027735  72.7635956  26.5724874
  77.3351765  31.5601969  44.0995121  76.4866877  31.9903922  43.9935589
  77.1534586  30.8074260  44.6621370  48.4195948  51.9492388  17.9837549
  47.4638271  51.9891787  17.9498637  48.6990309  52.1353674  17.0873713
  60.4757357  57.1157503  33.3921194  60.3075838  57.4876547  34.2579389
  60.8006477  56.2330484  33.5695839   4.6298650  62.0863867  33.4504533
   5.3912574  61.9501829  34.0143347   4.2524463  62.9123688  33.7530088
  22.4862051   5.7602000  29.2722464  22.0464540   6.0808188  30.0596833
  22.5845814   6.5359414  28.7201786  11.5211964  42.5428200  51.4827299
  11.9965935  41.8304396  51.9102192  10.9243226  42.8701448  52.1556616
  82.2572327  10.6752884  22.5859451  81.5448761  10.1519132  22.2187209
  82.3430061  11.4169097  21.9868851  11.2534559  54.8715353   6.0503399
  11.2604773  54.1030502   5.4797113  10.5209708  54.7197247   6.6475427
   3.6223295  41.5181684  12.5874305   3.8479573  42.4400806  12.7115631
   4.0274191  41.2827349  11.7527413  44.3945217  11.9344640   3.8687113
  44.5755625  12.3809564   4.6958148  43.4853601  12.1582174   3.6697403
  79.4461823  27.6100087  10.5366337  79.2349672  27.8408074   9.6320051
  80.2466393  28.0988050  10.7278800  17.4216056   6.6814858  25.6396198
  17.5742996   7.2776884  24.9065018  18.1332517   6.8677771  26.2520623
  15.2930367  44.7103024  -0.0848862  15.8458114  44.6957636   0.6964338
  14.3991292  44.6562767   0.2531104  84.9485874  48.7309408  25.0255060
  84.2478657  48.1690598  24.6945882  85.0324535  49.4215775  24.3680716
  61.5810394  63.5043144  32.4833512  61.4355516  64.3782139  32.1209097
  61.5028858  62.9171228  31.7314649  26.4001036   3.2230359  43.3948708
  26.8737245   4.0530464  43.4496117  25.4769182   3.4700266  43.4492350
  79.9571609  66.4733124  63.4151125  80.0229073  67.4195719  63.2866430
  79.7598600  66.1266088  62.5449991  63.5145378  67.8738594  53.1223631
  63.7587452  68.1881380  53.9928913  63.0891562  68.6242628  52.7074194
  79.4886875  65.2169180  12.1272850  79.4354486  64.4862652  11.5112090
  78.6381674  65.6506395  12.0585299  84.1837311  51.3089371  27.0526409
  84.1435909  52.1200943  27.5592422  85.0064945  50.8996677  27.3205900
  79.8923445  81.4998055  42.2616386  78.9526844  81.3411140  42.3515368
  80.2911758  80.9769821  42.9572105  12.5257444   2.0319711  12.3163652
  13.1033385   1.2710452  12.3764312  12.7818990   2.4633537  11.5011811
  27.5192761  81.5292835  69.7292805  27.8123379  81.5388393  70.6404638
  26.9237399  80.7817268  69.6770477  53.8323879  67.3550320  32.2399664
  54.0078974  67.1764565  31.3160944  54.6995115  67.4317980  32.6380086
   4.0392959  73.2069921  28.7425804   4.8219597  73.0728579  28.2080936
   4.2825952  73.9028740  29.3531442  57.3333454  50.1945877  15.7459486
  56.4407635  50.0655365  16.0666883  57.2356176  50.7793760  14.9944794
   5.9972107  41.5192938  51.0909462   5.4629439  41.0003328  51.6921711
   6.6594815  40.9072924  50.7698774  79.8252869  44.5337057  51.4174747
  79.4839811  43.7185669  51.0496521  79.3902063  44.6141195  52.2662783
  79.3639755  30.3989196   4.4700596  78.6055136  30.4912066   5.0466490
  79.9368763  31.1274147   4.7094518   5.7225531  23.3627439  35.9980989
   6.2255192  22.6073122  35.6938267   4.8110271  23.0724025  35.9656501
  61.5204525  47.8594065  25.6874275  61.2399387  48.1226873  24.8109412
  61.5078497  46.9025373  25.6656051  75.7297182  34.3520641  33.3665037
  76.2536621  34.2693043  32.5697184  74.8820543  33.9716411  33.1363535
  48.0382919  20.9297323  12.5557053  48.1159973  21.8711591  12.7103341
  48.1933880  20.5326390  13.4127319   1.7266190  56.3683510  32.7415323
   1.1809129  56.8766546  33.3415842   1.7506656  55.4913282  33.1242585
  78.9370489  53.2471752  22.4994516  78.0090761  53.0389738  22.6078439
  78.9476013  53.9819622  21.8860960  24.3644428  37.3894334  19.4408858
  25.3213406  37.3700833  19.4265211  24.1397834  38.2928991  19.2183816
  77.9353523  35.1439548  36.1647797  77.9587936  34.3007064  35.7124352
  77.0502377  35.4740548  36.0103846  71.9366026  16.1241806  52.9850054
  71.9762230  15.6473851  53.8140583  72.6252079  15.7305467  52.4491835
  63.3059168  74.1748190  26.0172057  63.4207249  73.6435843  25.2292705
  63.0211878  73.5523844  26.6863346  64.1317225  74.0658188  32.5649953
  64.4313240  73.8649797  33.4516358  63.8158560  74.9678755  32.6174879
  82.1038532  69.3429852  43.1891584  82.1069527  70.2805042  42.9960775
  82.9789448  69.0445328  42.9414225   5.8399993  24.3006134  66.6430044
   6.7971027  24.2921829  66.6536379   5.6120807  24.4654679  65.7280684
  71.0610533  53.5435247  30.2516961  71.8196964  53.5593081  29.6682167
  70.4337549  54.1414165  29.8451757  76.1449814  47.0982599  40.7454538
  76.3337708  47.9728699  40.4053783  75.3150845  46.8556023  40.3348112
  74.0962124  20.2197814  21.8671083  74.2150784  19.5020068  21.2450957
  74.1204214  21.0103655  21.3280129   0.6511342  50.3406572  10.0365937
   0.6872663  49.3955517   9.8892999  -0.0379473  50.4548931  10.6910777
  64.3544388  73.8678408  23.1484008  65.0909615  74.4703341  23.2521629
  63.8995838  74.1782045  22.3654509  72.4597168  43.8353395  29.0089083
  71.7056847  43.8043880  28.4200835  72.7811766  42.9340792  29.0339804
  27.3985934  74.5267439  62.5241470  26.5132904  74.1631126  62.5085115
  27.8097725  74.1903973  61.7278862  21.8097043  75.6373501  40.7947159
  21.3610411  74.8222303  41.0194731  21.7305970  75.6996822  39.8428273
  54.1631746  69.7711325  41.7423916  54.3625069  68.8414192  41.8525457
  54.7512150  70.0611782  41.0450315  16.1748219  51.0842228  12.8336632
  16.8864191  50.8104467  12.2549498  15.4602742  50.4781389  12.6379216
  46.0010338  73.0854607  34.1368699  46.6308165  73.6068964  34.6345735
  45.3231430  72.8573608  34.7730041  24.0593886  68.3661509  62.9265642
  23.7117720  69.1869402  62.5777054  23.8714337  68.4057903  63.8642883
  10.7768250  61.7332506  17.0208895  11.6805327  61.4960623  16.8128407
  10.2706695  61.4337635  16.2656760  85.2051067  33.2089686  32.0809770
  85.0679111  32.5527453  32.7641892  85.0262070  32.7444983  31.2633634
  58.5804176  21.4545941  16.5790963  59.2015982  21.6189241  15.8696127
  57.8204393  21.9944859  16.3618922  31.5087128  34.6729732   2.9920000
  32.0555139  35.4373074   3.1737509  31.3063431  34.7397017   2.0588195
  11.2566936  63.0012941   1.6453572  11.3448310  62.9068327   2.5937986
  11.8121314  63.7495136   1.4265350  54.1751814  42.5797796  67.5031996
  54.9900866  43.0781507  67.5647783  54.4418716  41.7256975  67.1631241
  64.2874289  12.4885893  41.7751598  64.5326090  12.0007813  40.9889269
  64.1699648  13.3887565  41.4716244  76.3592625  50.7003832  41.0476351
  75.6161547  50.5266905  40.4698372  77.0460749  50.1095390  40.7387209
  63.9961195  43.3696747   3.5779738  63.3242226  43.2134247   4.2415810
  63.8978577  44.2943001   3.3507207  21.1921072  66.3792610  21.5534115
  20.2858281  66.6710997  21.6520143  21.5086985  66.8394613  20.7760978
  21.9025660  44.7786760  46.8154001  21.7356300  43.9958525  47.3403311
  22.7713108  44.6346760  46.4401913  10.7922566  68.8298368   7.6032722
   9.9144942  69.0427494   7.9201841  10.9688485  67.9573488   7.9551309
  67.6560545  59.0057707  20.3677940  67.8650761  59.8265934  20.8136487
  68.4724522  58.5065317  20.3899527  81.7495346  64.4222307  13.4660661
  81.5182877  64.1930628  14.3661988  80.9278679  64.7208595  13.0763078
  43.0926943   4.0122139  55.7893181  42.5388527   4.7631806  56.0027266
  43.1713724   3.5308987  56.6129541  18.0652678  10.3048265  41.7211866
  18.9588237  10.5159867  41.9917440  17.5214863  10.5695903  42.4630976
   7.5343943  16.9094729  41.1390305   7.6873207  15.9714496  41.0252047
   8.1577998  17.1733975  41.8157482  59.1738272  62.0477915   0.7177792
  58.4436512  61.6709042   1.2087266  59.2131662  62.9588604   1.0087110
  26.9580960  76.9598722  70.2843523  27.0625782  77.9029560  70.4104662
  27.3720026  76.7839146  69.4393969  29.0164495  55.4390812  43.7900352
  29.1931844  55.2742958  42.8638411  28.8142037  54.5765305  44.1524363
  66.9977283  68.8964748  27.0809388  66.3359118  69.5239782  26.7902994
  67.1769238  69.1406775  27.9889488  18.9112508  17.5883603  15.4106629
  19.0421247  16.8733525  16.0334527  18.3881497  17.2016442  14.7084904
  30.9981012  74.2650604  17.7968228  31.1745000  75.0507069  18.3143878
  31.6273761  74.3063402  17.0767248  51.6867256  62.1703053  65.3616571
  51.5794182  61.2193823  65.3402281  51.7211533  62.4282742  64.4405174
  75.0740385  76.9870615  34.7011137  75.0810289  77.2765255  35.6134701
  74.3333054  77.4493027  34.3088460  15.4059327  53.8085651  13.0260694
  15.6278265  52.8782415  13.0647206  16.2457108  54.2590284  13.1160021
  27.3769760  43.0226612  33.0618811  27.4389291  42.6391792  32.1870470
  26.6937661  42.5139570  33.4985495   5.6532341  64.8222446  45.7731915
   4.7217226  64.8768377  45.9865856   6.0995561  65.0451612  46.5900993
  48.7921095  55.7178879  54.9176788  49.2413378  56.5254211  55.1672983
  49.0442753  55.5757332  54.0052986  67.8599215  66.9078875  68.9391375
  67.4634027  66.9114161  68.0679369  67.1429491  66.6716099  69.5276594
  81.9723034  69.0101576  19.0050173  82.5498581  68.2907963  19.2602980
  82.1464252  69.1377258  18.0724716  85.2724743  74.6453142  59.5040798
  85.1635838  75.5739546  59.7090101  84.3892574  74.2813969  59.5651436
  17.5834572  60.4588795  27.1593285  18.1958580  61.0752916  26.7577887
  16.7783296  60.5555439  26.6507435   1.1045088  28.9182734  46.5612841
   1.8205637  29.2192793  47.1206522   1.3560209  28.0303240  46.3072824
  27.5034738  12.8505492  30.7387590  28.0217385  13.6401725  30.8940935
  28.1466484  12.1873093  30.4884219  68.2688189  58.9647675  24.3969584
  67.6401615  58.4773779  23.8645411  67.7272749  59.5004272  24.9766374
  65.6586838  54.8560715  34.1031361  64.8316669  55.0768614  33.6747384
  66.3161707  55.3693295  33.6335492  72.9381561  16.9255733   2.4577624
  72.1868706  17.4994361   2.6077035  73.2787180  17.1948230   1.6046777
  22.1109462   6.1640185   6.4484107  21.7026258   6.0355002   7.3045588
  22.8278828   5.5301470   6.4274037  51.3967180  46.7250681   7.1673852
  52.2822189  46.9824648   6.9107372  50.8501434  47.4723244   6.9242829
   5.7227892  14.9631512  55.8201885   5.9268546  15.7882833  55.3800249
   6.2956482  14.3204618  55.4018402   8.1727511  57.4236965  21.8500376
   7.6417166  57.4592257  22.6456332   7.5349718  57.4216557  21.1362696
  14.6413136  76.1984682  67.1522474  15.2326632  75.7721663  67.7725744
  13.8936257  76.4721918  67.6835394  60.9813643  46.7474365  20.3371787
  60.6120253  47.2941875  19.6437216  61.5616560  47.3345995  20.8216643
  77.8400373  32.9788160  69.7834253  77.9434109  32.2650290  70.4127502
  78.7310696  33.2922006  69.6282148  70.0996065   7.8973222  41.8576813
  69.3653154   8.5112011  41.8433475  70.8777380   8.4538949  41.8265724
  77.0582676   4.1841406   6.7269325  77.3208809   4.3337509   5.8187008
  77.7956009   3.7129408   7.1149337  70.9868336  22.3797846   4.1199246
  70.1606131  22.8049994   3.8901711  70.9350824  22.2518587   5.0671250
  66.4485359   9.8048002  11.0703087  65.6383133  10.3127611  11.1121905
  66.1589766   8.8925117  11.0594130  50.0709438  55.2449512  20.1296973
  49.5206976  54.8596430  20.8116078  50.4353142  56.0329819  20.5327797
   7.1510357  81.3991547  29.8656106   7.6661581  80.8089447  30.4156446
   6.2761772  81.0110092  29.8516297   8.9184815  54.2177486   7.6429677
   8.6844718  54.2237997   8.5711026   8.6949027  55.0956392   7.3338598
  32.2446465  16.7505515  47.6668119  32.3663855  17.2742105  48.4587669
  31.2975168  16.7419624  47.5285959  46.8139172  20.8539605  55.3768015
  46.5654135  20.7241368  54.4615793  45.9932566  20.7691813  55.8621502
  73.5006618  55.3414059  44.7773409  74.2657423  55.7192373  44.3436050
  73.5705328  55.6356716  45.6855011  53.1990671  16.0485709  24.4150424
  52.8409481  16.0655093  25.3025651  53.7964058  16.7958450  24.3834949
  62.2807264  12.1548212   0.0713123  61.6490030  11.4829123   0.3276232
  63.1319189  11.7853844   0.3062982  33.2800245  49.9959040  11.3798404
  32.9762530  50.0763559  12.2839880  32.4772120  49.9559498  10.8601046
  84.6802330  41.8148470  44.1684246  84.7094250  42.6083708  43.6339188
  83.8131714  41.4453316  44.0014219  82.6561165   3.2490721  34.7447777
  82.8242970   3.0161014  33.8317227  81.7017651   3.2564637  34.8181939
  84.1213799   7.5940865  67.0783901  84.6644688   7.9408485  67.7862310
  83.9540386   8.3483934  66.5133667  24.2307711  19.9078786  48.3570337
  23.5387254  19.5595539  48.9191484  24.6285057  19.1335297  47.9590082
  24.8558521  23.6396956  37.7329707  24.7305846  23.2748461  38.6089993
  25.5026078  24.3350005  37.8533292  23.0057240  30.9104729  56.7608976
  22.9549432  30.2009249  57.4013615  23.2511854  30.4778337  55.9430885
  52.8560495  14.8526156  38.9356017  52.2780085  15.5333412  39.2801571
  52.5441790  14.7027349  38.0431294  34.9083495  68.0014133  48.4134150
  35.7406163  67.6190948  48.1352186  34.3892908  68.0550480  47.6109648
  18.7419391  28.2513690  59.7642565  17.8155255  28.1903934  59.5312977
  19.1961694  28.3187437  58.9243937  63.2115936  66.2910652  61.5178776
  64.0507650  65.8361483  61.5890932  63.1635189  66.5628624  60.6013393
  15.6763601  43.9024162  10.7823038  16.3240242  44.3229151  11.3479388
  16.1947203  43.4807110  10.0969577  20.1836658  29.5568419  54.9554110
  19.8898137  29.7351241  54.0620470  21.1374402  29.5105577  54.8890829
  73.8081932  19.1120768   4.7372931  73.9880514  19.1301751   3.7973171
  74.2513227  18.3236742   5.0508046  72.5636387   4.8415986  39.8865151
  71.7392826   5.3268337  39.8516917  72.4004078   4.0545201  39.3668079
  45.0449276  71.7414713  13.8908243  44.4640160  71.3273335  13.2526505
  45.9214830  71.6348553  13.5213518  37.3079515  67.3832846  59.0406990
  36.6463041  66.7481232  59.3146038  37.9790545  67.3388577  59.7217846
  76.2960720   4.0834662  18.1093073  75.9836817   3.1792077  18.1402886
  76.3579655   4.3470746  19.0274096  63.7876940  10.0505090  14.4720352
  64.1210461   9.4005609  15.0906408  63.0080366  10.4078925  14.8970592
  26.5398169  27.5198770  13.2769382  27.4465919  27.8201032  13.3390081
  26.1956048  27.9569173  12.4979997  11.4259136  34.8874474  54.9801254
  11.2853312  34.3603897  54.1935635  12.3716497  34.8551059  55.1242352
  74.4125795  79.3795443  60.0118160  74.5748997  80.3197765  59.9353933
  73.6468172  79.2229939  59.4592524  58.0204439  57.4104929  20.6542587
  58.8294220  56.9562912  20.4187012  57.5160217  57.4384785  19.8412323
  12.7764523   8.7207174  15.6421876  13.0006337   9.5348030  16.0930073
  13.5307348   8.1500173  15.7891250  25.2063966  14.7132802  43.7044954
  26.1209583  14.7360826  43.4229136  24.7704196  15.3649545  43.1554270
  58.7667322  40.8984423   6.5303600  57.9262638  40.5921316   6.1897379
  58.5368586  41.4306259   7.2920519  56.5358877  59.6509314  62.2184801
  55.6926727  59.8150826  62.6406956  57.1851873  59.8741961  62.8854084
  86.3546658  11.7663825   7.2369367  86.2085629  11.3233089   8.0727422
  86.7648029  12.5978279   7.4750954  44.7998333  56.4814138   3.1367624
  44.1309929  55.9466743   2.7090448  45.5354500  56.4799356   2.5243127
  10.9224653  35.8707285  57.7273750  10.8793724  35.7138658  56.7841005
  10.1266050  35.4672718  58.0738735   8.6797398  75.4238319  47.5398684
   8.6780173  76.1714411  46.9421148   9.1627890  74.7433710  47.0709658
  44.8062658   7.8355181  24.6945930  43.8873339   7.9468840  24.9383044
  44.7915840   7.1782774  23.9988565  72.0174408  16.5898871   9.0059996
  71.4458370  16.4720094   8.2473111  71.4175606  16.7365324   9.7373486
  64.3055773  33.5317969   7.2126096  63.7198544  33.6188388   6.4605552
  65.1430559  33.8788843   6.9053745  68.9025688  19.6550679  16.9263852
  68.0966234  19.2296708  16.6335917  68.9519930  20.4577065  16.4071941
  49.5299578   2.2389634  10.9983659  48.8467407   2.8571483  10.7389581
  50.0612926   2.1246891  10.2104211  61.5109205  13.2186031  12.1619999
  62.3419619  13.2301140  12.6368332  61.7000532  12.7315629  11.3599694
  78.0354834  35.5057430  19.7089946  78.2138062  35.9039116  18.8569987
  78.7024450  34.8251724  19.7996211  72.2435331  25.8888793  13.3978808
  72.9481316  25.6378102  13.9951587  72.4197817  26.8069196  13.1920290
  67.8167391  41.8523550  51.5068483  66.8687248  41.7919540  51.3891411
  67.9395580  42.6127243  52.0751619  52.9475451  65.8136129  43.3700466
  52.5955009  65.1382113  42.7902794  52.7905941  65.4774380  44.2524195
  48.4105301  44.7734499  13.8054717  48.0049658  44.7263575  14.6712255
  47.6786518  44.9176979  13.2056558  63.1261778  20.4245400  40.4712009
  62.7734041  21.2018609  40.0381279  62.7436924  20.4447508  41.3484287
  81.6423893  13.5938287   7.6639539  82.3594761  13.6865354   7.0367134
  81.2449932  14.4637275   7.7037132  86.6155338  74.9406767  34.0220356
  86.5333080  75.1231050  33.0859852  85.8023930  75.2721834  34.4029975
  77.8701353  20.9820294  42.7912283  77.3534775  21.3014770  43.5309887
  78.7737370  20.9950471  43.1067753  66.2904310  31.8321037  12.4949884
  66.2643671  32.2540689  13.3537662  65.7374239  31.0568810  12.5921512
  39.2691922  44.3153811  27.4020791  39.3850923  43.8341665  26.5827918
  39.9347520  45.0026798  27.3723698  28.5779738  78.9335203  38.1973386
  29.3099165  78.7446880  38.7845612  28.9666533  79.4430017  37.4862909
  65.9357452  59.4926691  14.3275547  65.8688498  59.9146843  13.4710157
  66.4680624  60.0930738  14.8494577  47.8752136  75.0839710  29.4613385
  47.5806332  75.4519701  28.6282516  47.6359987  74.1584444  29.4122887
  46.1787510  22.8089833  24.0454078  46.6564798  22.0165920  24.2905974
  46.0456610  23.2737136  24.8715711  19.6924067  32.4203682  37.4995923
  19.8938429  32.8038025  38.3531904  19.2133319  31.6174722  37.7047253
  65.0912094  79.7956848  22.5214195  64.2308760  79.4408131  22.2975349
  64.9471283  80.7382774  22.6050091  77.4934578  50.1986837  35.7749176
  77.1039438  50.8717728  36.3330030  77.4312210  50.5563974  34.8892522
  41.5210629  16.3657951  49.2327642  41.2451601  15.5448020  49.6402931
  41.4191866  16.2129688  48.2933521  80.2763462  21.5680623   3.6621040
  80.5574608  20.6676316   3.8246754  81.0243416  21.9777274   3.2274729
  55.1776123  18.2303667  53.1275368  54.2612648  18.3802843  53.3600426
  55.4224205  18.9982700  52.6111746  42.7796268  11.2454164  23.3064389
  42.6308012  11.9137120  22.6375127  43.0945873  10.4843640  22.8187585
  73.8021517  40.5754137  25.8197856  73.3498812  39.9377775  26.3721490
  74.7237778  40.3209877  25.8656502  68.7593317  12.8260934   5.4713321
  69.0207005  12.0942855   4.9124247  68.1977081  12.4299538   6.1375773
  47.5440311  79.4819117  24.5202923  47.9559803  79.4999409  23.6564612
  48.0716467  80.0798225  25.0497842  62.7446413   4.7611579  15.1308227
  63.6158371   4.9111360  15.4979169  62.2393179   4.3933576  15.8558071
  79.2527580  56.4778662  65.3691912  78.6877871  57.1257734  65.7902098
  78.6856604  56.0435629  64.7320032  67.8247452   5.3903383  22.3118544
  68.7773752   5.3989005  22.4048710  67.5644016   6.3039315  22.4293327
  66.2637615  37.3039269   9.0498734  66.6728878  38.0893707   9.4130898
  66.8799305  36.5990043   9.2489952  59.4353294  25.6109691  20.8900023
  59.9638271  25.2650476  20.1707935  59.5128870  26.5615416  20.8085608
  49.6791220  35.1976228  18.2625389  49.1219950  35.7638478  17.7284694
  49.0781307  34.7889090  18.8854289  31.7889190  21.3812184  14.8680449
  31.5091610  22.2445607  14.5637310  32.3955846  21.0746908  14.1940808
  76.6811943  36.7991352  12.3568809  77.5735092  36.7730451  12.7023113
  76.1482382  36.3906884  13.0390561  84.8635674  25.3356600  23.5477471
  83.9292431  25.2128744  23.3798480  85.2493477  25.4540944  22.6797748
  43.0251598  30.1437211   7.9374593  43.2039881  29.4396853   7.3140925
  43.8280678  30.2163935   8.4534913  76.0514259   4.3136090  27.7206588
  76.0268736   3.4069633  28.0266356  75.2415752   4.7006360  28.0532098
  69.2145586  56.3173676  25.0274992  68.8511276  55.9024858  24.2451811
  69.2352867  57.2506714  24.8159671   5.9550363  74.4364643  66.2207413
   6.2261683  74.7684193  67.0766163   5.1837784  73.9003706  66.4051247
  57.3198080  14.5195687  15.0476539  57.8011179  15.3157616  15.2727163
  56.7019606  14.7963917  14.3709970  21.6281939  42.6721859  15.0285006
  22.1402717  43.1420851  15.6866813  21.4465022  43.3267975  14.3541837
  46.1503744  76.8146944  11.0910678  46.2653399  77.4671507  10.4001904
  46.9197416  76.9203043  11.6506684  49.8914528   7.3219621  18.7770724
  49.6405888   6.9753242  19.6333086  50.1433802   6.5498298  18.2705402
  35.9619522  69.0746880  26.7929125  35.1956940  68.6916113  27.2199202
  35.6064892  69.7768068  26.2480235   5.0185031  24.1222262  32.7595854
   4.5569450  24.5430565  33.4849119   4.6161833  23.2564902  32.6897836
  55.8354998  18.8584316  31.9702649  56.2667274  19.6113157  31.5659881
  55.5963469  19.1612732  32.8462362  18.8766706  29.9252200  44.9706984
  19.1614711  29.2518783  45.5885410  18.0104971  29.6360302  44.6837378
  76.3719177  74.5985079  54.9383593  75.8273125  74.8755455  54.2015505
  75.7597494  74.1832685  55.5458593  78.6545897  41.5543699  15.7440722
  77.8782845  41.9486141  16.1417675  78.3687067  40.6814051  15.4749405
  53.0752182  78.8850164  32.8679705  53.5613632  79.6796989  33.0879211
  53.1964254  78.3126831  33.6255813  69.7920036  21.6909480  30.5651259
  70.0795126  22.5788331  30.3524542  70.5640984  21.2744427  30.9480381
  77.4112892  61.6767073  31.1939454  77.1017599  61.9209480  32.0661664
  78.1745243  61.1225605  31.3571215  44.5276117  75.6863880  28.1140208
  44.8297358  75.5850697  27.2114205  44.3548632  74.7928047  28.4105039
   1.1030141  24.3593907  57.1055889   1.2571900  24.3185234  58.0494022
   0.1497886  24.3611073  57.0184660  73.6367512   9.7782272  37.9054284
  73.6072493   8.8245738  37.9822826  72.8637218  10.0809431  38.3818984
  81.5638924  31.9440913  26.4919090  80.8205128  32.1201229  25.9151578
  81.2336731  32.1283078  27.3712564  53.5845262   0.3855801   2.9658008
  52.9377371  -0.0894547   3.4875664  54.2313224  -0.2774906   2.7245039
  46.4586973  52.1010447  69.7902775  45.9266806  52.5157547  69.1111565
  47.0909119  52.7737141  70.0433588  56.8937111  53.9217520  61.1535072
  56.6413689  54.8358011  61.0228682  56.0886574  53.4268904  61.0010719
  15.6753635  20.8406544  28.6043906  16.0106778  21.7130780  28.3978176
  14.7242284  20.9471059  28.6198902  46.8583012  63.5317230  24.7795630
  46.4011002  63.2449961  23.9890027  47.3052549  64.3370581  24.5189953
  68.5940361  34.7677159  47.4888945  68.0845404  35.5533290  47.6875257
  68.0227327  34.0419006  47.7399731  31.5702534  65.8883810  10.1328909
  31.6635323  66.6453409   9.5544952  32.3345089  65.3448677   9.9412113
  16.3578677  10.0638533  12.0734715  17.0239866  10.6666541  11.7430949
  16.1447310  10.3968263  12.9452133  24.4098473  37.0398402  30.9306693
  23.7379861  36.4210153  31.2168312  25.2359986  36.5754008  31.0648298
  50.1983023  73.9795303  21.5667248  49.2762661  73.7468243  21.6759777
  50.3296185  73.9993811  20.6187844  29.1354108  46.7640829  34.9970460
  28.4169984  46.5408039  34.4052172  29.0403247  47.7050114  35.1448584
  75.6954432  18.5051298  17.8445446  75.9760475  17.6655900  17.4803114
  75.3857279  19.0029514  17.0879185  10.7760656  76.6298199   4.0136003
  10.1542628  77.3434734   3.8711566  11.6155112  77.0679283   4.1536748
  11.8151903  47.1039104  14.8338020  11.5005922  46.2061644  14.9401319
  11.0330653  47.6063347  14.6055901  73.3740425  12.3565984   8.4884489
  72.7968025  13.0239511   8.1174165  72.8269005  11.5735352   8.5491240
  37.1135020  16.5394878  29.7943711  36.8451357  17.0383739  29.0227985
  37.9213572  16.9631207  30.0844359   3.2388729  31.0769629   6.7547464
   3.0440095  31.9966578   6.5746903   2.3808411  30.6555867   6.8042976
  32.6656294  59.5174360  10.8914101  32.2101498  59.1638756  11.6554558
  32.0346475  60.1165104  10.4924130  50.4475069  27.8665113  50.6072426
  50.6595278  28.7994814  50.5782270  51.2952757  27.4308562  50.6951571
  21.7748857  72.6692152  35.2662706  21.2835455  73.2288313  34.6649003
  21.1059260  72.2695208  35.8221197  33.8674402  52.4499989  40.7018280
  34.7249508  52.8595591  40.8165836  33.8867211  51.6877270  41.2804461
  51.1670589   9.0495157   2.3150691  50.8944702   8.9795029   1.4001778
  50.6007862   9.7282004   2.6824373  31.2709427   4.2320406  62.8632307
  31.5358758   5.1259005  63.0801582  31.6310239   3.6971471  63.5706615
  16.9361556  61.9678974  55.9860802  17.6440144  62.3491383  55.4666376
  16.1404014  62.1783161  55.4974794  63.3209705  53.4351730  28.7605309
  64.2003441  53.2591915  28.4259176  63.2016087  54.3768024  28.6367750
  75.0007296   3.6383787  20.7221246  74.4303894   4.1054410  21.3326931
  75.8286142   3.5429052  21.1930037  40.0085354  26.0150647   7.4184090
  40.5907297  26.4757133   6.8141878  39.7116661  26.6913009   8.0273449
  17.1680522  77.2282791  69.6732140  17.6302171  76.8655014  68.9175510
  17.0378447  78.1509066  69.4540358  64.1443729  20.5527878  65.5410957
  64.9199963  20.9312272  65.9551239  64.3129206  20.6290078  64.6019411
  50.2684025  74.4509055  70.1429851  51.0796193  74.1847946  70.5758145
  49.7367648  73.6552359  70.1205176  18.6143970  45.9655905  62.1468878
  18.5551608  45.8993053  63.0999470  18.7526512  45.0653982  61.8523169
  55.1781034  37.4512100  15.8901751  54.8961258  37.0090842  15.0893962
  54.9784851  38.3747268  15.7368696  38.2408929  66.3068104   6.5270317
  38.4016871  66.8110418   7.3246068  37.9482508  65.4507780   6.8397707
   3.9519414  55.8401775  22.8801870   3.6130336  56.3717890  23.6004376
   4.9009898  55.9577274  22.9216862  12.3478484  24.5727658  22.7080917
  11.7872095  23.8093305  22.5699496  13.1331432  24.2205715  23.1270194
  29.7281504  75.4961586   8.0617207  29.8245621  74.5524693   8.1897628
  28.8120294  75.6743526   8.2743275  79.2806959   3.7450087  31.8271017
  78.4044218   3.6550179  31.4525652  79.8379087   3.9690045  31.0817337
  27.8489113  50.4167938  52.9719639  27.0891786  50.6444931  52.4360609
  27.4792290  49.9732351  53.7353897  71.1945772  23.4268546  17.5940323
  71.4244032  22.7431202  16.9648123  71.6609001  24.2034841  17.2848010
  67.2958851  33.0233574   1.2004369  68.1676817  32.6691222   1.0251612
  67.4603939  33.8667083   1.6222523  34.8167014  25.0206947  59.3966055
  35.1970482  24.5092988  60.1107740  35.0072145  25.9303808  59.6255255
  84.0041161   9.6179467  59.7768927  83.2859325   8.9861315  59.8121357
  84.2059708   9.6993703  58.8447666  53.5886097  17.5188315  14.9642777
  53.7076187  17.8185380  15.8655238  52.6902533  17.7669394  14.7460163
  82.8544044  45.0579929  12.8357339  83.0743217  44.2479801  13.2958841
  81.9795799  45.2832937  13.1522202  68.5924864   2.2476108  49.6826077
  68.7442493   3.1873962  49.5825911  69.1836214   1.8407834  49.0491390
  65.1308727  24.0230894  49.2969131  64.9724054  23.6943793  50.1818228
  64.5400476  23.5132408  48.7426424  22.8385496  39.0084028  60.9013224
  22.6157141  38.1046367  61.1244488  23.6608648  39.1732240  61.3626957
  82.9444408  11.1347222  17.8187275  82.2460365  10.5352890  17.5557625
  82.9983807  11.7682314  17.1031940  48.9709139  59.1577911   6.7698944
  48.2551908  58.8308048   7.3149222  48.5407686  59.7045469   6.1124235
   7.3579031  36.5130734   1.9301526   7.9888695  37.0407271   2.4197389
   7.4471051  36.8116689   1.0251030  40.3756809  16.6292155  12.2902739
  40.6557035  17.3531210  11.7301130  40.8624411  15.8721387  11.9644976
  34.7441077  70.1523352  13.6561096  34.8826957  69.3397665  13.1695378
  34.5384097  69.8664331  14.5461535  82.3768330  12.2259092  20.4908276
  82.7173519  11.9296181  19.6467340  82.8855896  13.0113673  20.6919599
  80.8389950  36.0563707  16.3845587  80.6839943  36.9990873  16.3254368
  80.0144291  35.6599569  16.1031675  46.4968109   1.1130646   1.2180282
  47.2057867   0.5982636   1.6034687  46.8070650   2.0175862   1.2606460
   1.7332126  32.1962690  29.4320893   2.1544823  31.6168952  28.7971973
   1.3746406  31.6054893  30.0943875  28.1709814  65.6053686  29.1642666
  28.4662390  66.1980534  29.8554802  28.7970543  64.8816252  29.1857338
  47.3927355  72.4332762  29.4158125  47.8826189  71.8998861  30.0417018
  46.4742851  72.2394323  29.6031928  84.8814583  38.2384419  48.5095167
  85.1137352  38.7216401  49.3024826  85.6459904  38.3296871  47.9408407
  80.6043530   4.6548912  26.1203742  79.7580671   4.3590742  25.7849336
  80.5035305   4.6391276  27.0721173   6.0108203  29.2819500  65.7482958
   5.3446519  28.6041260  65.6342506   6.1991358  29.5845723  64.8599339
  43.3286667  73.1507969  15.8711874  43.0215979  73.8255835  15.2657056
  43.5024643  72.3912525  15.3152061  62.4169159  13.2429099  21.4203858
  62.4195671  14.1939807  21.3122606  61.6215038  12.9532743  20.9735513
  84.9963665  24.1582680  15.4822648  85.3708172  24.3666172  16.3381910
  85.7340908  23.8217592  14.9735856  45.6473207  74.7367096   6.5951133
  46.5909481  74.8964405   6.5781093  45.2584791  75.6073952   6.6783994
  14.7116649  21.2789202  40.7532978  14.5081449  20.5320740  41.3163567
  15.5403805  21.6163754  41.0932732  78.7990093  22.3933339  10.9464765
  78.2521105  21.8253565  10.4037654  78.8406515  23.2185769  10.4632878
   8.5683984   5.6112838  46.8181276   7.9312450   5.5826730  46.1043692
   8.7641340   4.6924165  47.0014334  52.6425171  69.3420219  34.4699836
  52.5203657  68.9252567  33.6169791  52.6612139  68.6143684  35.0915956
   0.7626802  52.1397495  69.3236923   0.7146631  51.5147257  70.0470638
   1.6552746  52.0512247  68.9895201   0.3199872  39.2687416  64.8954391
   0.5574028  39.6018863  64.0300560  -0.5438818  39.6433496  65.0675726
  31.9419217  56.5341330  13.8233829  32.8368998  56.4070034  14.1381621
  31.9568157  56.2113714  12.9223633  68.3531094  22.6705122  23.8143468
  67.7315044  23.1225276  24.3848896  68.9535236  23.3567095  23.5230231
  64.1225195  20.5986595  27.0050073  64.9970055  20.2972364  27.2512817
  63.9073277  20.0940561  26.2205958  83.6283112  41.3343287  33.2279706
  83.2129002  41.0337496  34.0362549  84.2176819  40.6213045  32.9820728
   0.5815279  21.6377926  15.8486545   1.1809023  21.3889766  15.1450396
   1.1265820  22.1250725  16.4664781  23.7929773  22.7796149  18.0855680
  24.1120052  23.4632301  17.4963963  24.2446518  21.9860196  17.7984607
  52.8345251   5.2384228  44.2479372  51.9884396   5.6168544  44.4870090
  52.6285267   4.6081382  43.5576200  49.9559879  37.0468903  20.7162380
  50.1832008  36.4832830  19.9766755  50.6339073  36.8708467  21.3686681
  51.3694525  51.4912558   7.1854216  51.8044233  52.0815372   7.8007263
  50.9819794  52.0714760   6.5301073  76.5293407  41.5695667  32.2213507
  76.7318964  42.2393751  31.5682364  76.8918085  41.9136810  33.0377054
  84.1498470  70.6164932  33.3332920  84.4563389  70.6949186  32.4298859
  83.2210541  70.8441782  33.2917261  69.0631390  27.3251104  61.0786915
  68.1677008  27.0788836  61.3106203  68.9913654  27.6842022  60.1943064
  17.3294556  49.5336246   4.4709587  17.3391604  49.7927237   5.3923732
  16.7445135  50.1642513   4.0509751  84.8459339  16.9270730  17.1802485
  84.6106815  16.3146782  17.8772855  84.2057705  16.7600036  16.4885020
  83.5519981  51.1235237  33.7084484  82.6256466  50.8997250  33.7980556
  83.6736012  51.2689209  32.7702022  65.6579494  43.0839491   1.5509856
  65.5073643  43.7512875   0.8814945  64.9884415  43.2540703   2.2135904
  24.8295736  33.7875724  15.8367741  24.0242910  34.1088438  16.2424028
  24.6064162  33.6823034  14.9119222  43.1094790  13.9382041  48.2470369
  43.3187199  14.5378852  47.5309134  43.5725927  14.2978156  49.0036345
   1.3515441  13.3532679  13.8046718   0.9438141  12.4882376  13.7633014
   1.8044850  13.4448969  12.9664111  14.4793844   6.3433689  17.9165161
  14.8641396   5.7675415  18.5772872  13.5554683   6.4030224  18.1595218
   6.6023493  17.3484802  14.5475090   6.7006183  16.5528238  15.0704873
   7.0341241  18.0292082  15.0636601  30.1275969  12.3373914  37.3060179
  29.5251393  11.6197014  37.1105671  30.6553435  12.0148706  38.0365610
  66.7845726  67.7760315  11.0209596  66.6612101  68.4449625  10.3475022
  67.3714733  67.1360588  10.6182015  80.8404446  69.6031666  22.6209641
  80.8262920  69.5248890  23.5748529  81.2750435  68.8046074  22.3215389
  85.2941132  29.2439961  18.4326172  85.2154541  28.4348536  17.9273081
  85.8031654  29.8285604  17.8710341  61.8612862  29.5383954  26.5810490
  61.1947060  28.9890647  26.9935274  61.8266153  29.3018532  25.6541848
  11.7167091   9.5081645  53.5203743  11.3506424  10.0063074  54.2511797
  12.4237370   8.9945376  53.9109230   0.4825320  52.0844412  41.6956234
   0.6696684  52.3870897  42.5842237  -0.4141596  52.3742580  41.5277481
  71.4767408  13.7118578  63.8469982  72.3031378  14.0692770  63.5221148
  70.8621216  14.4437873  63.7945127  75.5154753  24.9312091   5.7676500
  75.0747299  24.8869610   4.9191123  74.8473549  25.2627707   6.3675785
  12.0018578   6.8983459  10.0355268  12.1126473   7.2337681   9.1458929
  11.2844801   7.4171263  10.3994894  26.9469237  20.3074694   8.0161488
  27.3132682  19.4284940   7.9190576  26.2155318  20.3316164   7.3991299
   6.0064608  18.7549639  66.8136215   6.4080757  18.6650085  65.9494209
   5.8037198  19.6875155  66.8876219  53.2446909  18.5459006  10.0006127
  53.4527636  17.6451218   9.7525495  54.0266085  19.0456605   9.7659236
  78.1933451  43.6920786  38.1136227  78.6479568  42.9699278  37.6799631
  78.7889957  43.9656210  38.8111925  61.6350889  60.1134443  36.4866757
  60.9396505  59.5440769  36.1574030  61.8693590  59.7388887  37.3358226
  53.3609438  31.4749670   4.1154695  53.3597422  30.6086826   4.5226350
  52.6713133  31.9557142   4.5732072  77.5075102  16.3498068  39.3956351
  77.4748802  16.7729723  40.2535963  77.0084524  15.5408287  39.5084476
  74.1690540  20.9895015  10.3452408  73.6369133  20.8223629   9.5673442
  73.6330366  20.6764865  11.0738933  14.6413219  17.8474104  18.3029997
  14.6772516  18.6790514  18.7755620  13.7224710  17.7543914  18.0514193
   5.3139645  46.6114902  12.3935318   5.6663704  47.1404266  13.1092584
   5.1285744  47.2425652  11.6981137  81.9850254  47.2116899  40.8744574
  81.4050674  47.7515507  41.4115095  81.5814781  46.3437653  40.8842468
  68.3516073  35.0175428  19.1255546  68.5759830  34.9348426  20.0524020
  68.6985016  35.8724356  18.8705015  53.3362198  27.0377159  62.8607941
  53.0586004  27.6936722  62.2213554  52.5332975  26.5676665  63.0857325
  64.8300171  43.5201359  14.2751276  64.1917515  43.6107779  14.9826813
  65.3803492  42.7837849  14.5418799  54.7376585  76.0175228  44.5384932
  55.2741146  76.1738110  43.7613058  53.9413834  75.6070518  44.2013073
  71.1141157  79.7062016   4.6364173  71.8076563  79.1133595   4.9258533
  71.5688896  80.3749657   4.1243908  73.5211372  35.0316286  68.1829405
  73.5989952  34.6856213  67.2938681  73.9242792  35.8986640  68.1386757
   2.6955575   5.7152075  28.5251331   2.6025563   6.5985233  28.8819742
   3.2499242   5.8260673  27.7527213  20.3466105  61.6341209  70.0226307
  19.9661732  61.2482548  69.2335796  21.1340857  62.0824718  69.7142553
  73.6197281   4.8225152  28.9004827  72.9966736   5.2930975  29.4541883
  73.1137657   4.0978006  28.5330248  76.1246109  26.6751814  25.2558708
  75.3433990  26.8468118  25.7816863  76.8448114  27.0382428  25.7713604
  86.0544395  23.9941573  18.7434661  85.2543640  23.9826250  18.2181382
  86.1356735  23.1001806  19.0757895  70.0201416  58.0059004  63.7233257
  69.6214056  58.3533382  64.5211506  69.6651649  57.1204853  63.6441374
  71.9196844  26.4787340  51.8101692  72.7104998  26.6178465  51.2891150
  71.9825983  25.5695724  52.1029139  24.0545917  24.4105530   7.6968199
  23.1906080  24.0935850   7.9600555  24.5979691  24.3007708   8.4771538
   0.9269311   3.9645803  26.9286537   0.2447418   4.5249471  26.5587354
   1.3295698   4.4979915  27.6139164  18.3980668   9.5653522  20.1268697
  18.6759090   8.7587309  19.6928239  17.8873229  10.0302720  19.4641316
   9.9273437  23.0254841  37.7056026   9.9262458  22.4840832  36.9162250
  10.7267439  23.5474730  37.6369119   4.4429427  26.9248629  65.7037020
   4.7103536  26.4258361  64.9318886   3.4909680  26.8292880  65.7327080
  55.6773233  18.4950387  63.6520481  55.4993963  19.3597758  63.2821798
  56.5060472  18.6003113  64.1193438   4.1567987  29.7149181  21.4011240
   3.8989949  28.8801384  21.7921591   5.1036274  29.6411276  21.2815309
  26.3322973  72.8192806  68.6843395  25.8169866  73.4420729  69.1970015
  25.9079242  72.8062153  67.8264523  57.0824909  41.2965965  14.4916594
  57.4781609  41.2680769  15.3627861  56.1722040  41.0367632  14.6334326
  18.9538562   2.4700010  31.2431788  19.0255141   1.5323882  31.0643506
  18.1764078   2.7475163  30.7586265  65.0747728  51.3053322   0.8008351
  65.2718401  50.7426643   0.0519693  65.0908566  50.7154036   1.5544626
  20.0892591   7.9043704  38.9827394  19.2710841   7.6578724  39.4140863
  20.6367588   8.2504594  39.6875072   6.4763540   9.9721432  20.2845645
   6.6952437   9.9354517  19.3534505   6.4553201  10.9070206  20.4890013
  39.4119525  34.8361850  28.7559676  38.5175180  35.1671648  28.6742759
  39.8874879  35.2509356  28.0361891   1.1831588  77.4559736  66.6211033
   1.1851282  77.3407650  67.5713444   1.4458135  76.6027212  66.2758446
  12.6015890  29.9796414   4.9014714  11.8382120  29.4095182   4.9933809
  12.2416854  30.8664370   4.9186364  81.3957310  20.1431870  48.6805296
  80.4554653  20.3169346  48.7246132  81.4575768  19.2092729  48.4800005
  19.4045711  13.7621701  21.2655640  19.1869879  13.0399656  21.8548942
  18.8257694  14.4748771  21.5362501  70.4695511  15.1543188  11.6108119
  70.3417253  15.1067531  12.5582445  70.6384087  14.2500460  11.3462150
  25.5117202  23.8565445  48.3707333  25.8470535  24.6029687  48.8673592
  25.5778360  23.1174231  48.9753485  74.0890503  40.3235865  31.8368411
  74.9774933  40.6747150  31.7767859  74.0680695  39.8676443  32.6782131
   6.8448377  56.0443020   4.5473468   7.4767649  56.7619085   4.5913512
   6.5372318  55.9404850   5.4478091  79.9730587  32.6684070  19.1893709
  80.5044270  32.1207547  18.6114764  79.1406155  32.2016597  19.2629898
  14.3214858  55.7942724  28.6247301  13.3791935  55.6269598  28.6067295
  14.5801044  55.6108332  29.5278907  74.7584963  53.9985037  38.2506514
  74.4315434  54.4402790  37.4669623  75.2477551  54.6742201  38.7199807
  13.3772671  48.4922791  35.6003189  12.6797104  47.8837681  35.8439708
  14.0705943  47.9335928  35.2490377  67.6938772  27.6817608   7.4432606
  66.8857193  27.2229171   7.2139692  67.6296329  27.8225327   8.3878702
  61.2348270  75.6784821  24.4918847  60.8330154  76.2810946  25.1176953
  61.8150520  75.1332045  25.0231481  51.1953068  80.0946808  36.4079285
  50.4737329  80.5577087  36.8335700  50.8399773  79.8240423  35.5613351
  58.9985895  41.5847445  19.3982506  59.9168348  41.7608595  19.1932058
  58.8695478  41.9665956  20.2664495  67.6667690  81.0854244  67.6549292
  68.5572290  81.3798428  67.8463316  67.7818680  80.3492165  67.0541096
  12.0315993  39.9630833  16.9882655  11.1337495  39.6829987  16.8103623
  12.3722982  39.3047810  17.5939023  83.4528732  52.5156593  38.1800604
  82.9348564  52.0089912  37.5546217  83.3860970  52.0251369  38.9993024
   1.9263978  17.9028785  16.4646649   1.9988830  16.9508755  16.5329766
   1.2195142  18.0446970  15.8350337  18.9118052  20.2778745  15.4062080
  19.0066218  19.3317902  15.2959025  17.9819798  20.4449749  15.2521479
  84.7030163  19.9090230  15.1578319  85.3027725  20.5769968  14.8256660
  84.1901016  19.6462870  14.3935561  35.5789661  11.2465930  42.4460030
  34.9229765  11.8446839  42.8040457  35.2284479  10.9893119  41.5932560
   0.4505654  40.5640650   9.4200248   0.6139262  40.1366949   8.5792506
  -0.0629471  39.9270272   9.9167365  75.2038956   6.2352878  16.2616014
  76.0850239   6.2910175  15.8918226  75.2428150   5.4909420  16.8621564
  43.7448359   7.5291538  62.7769566  44.0747738   7.2629189  63.6351490
  42.8325081   7.2395897  62.7707338  69.5503139  11.5113175  31.6854382
  69.7533989  12.4310327  31.8560648  70.2222538  11.2287676  31.0650396
  55.7862759  35.9415126  18.4846532  55.7280445  36.6612411  17.8562975
  56.6868401  35.6268907  18.4056795  52.2121143  31.1410689  59.2855501
  51.5270281  31.7534471  59.0174437  52.4865198  31.4514637  60.1484442
  21.1956930  81.2130547  59.1826677  22.0368958  81.2710953  59.6357012
  20.9472656  82.1232605  59.0212965  68.5751438  22.7462983  26.6793132
  68.9315033  21.9153690  26.3649917  68.8790178  23.3933353  26.0427308
  61.1314440  35.0950098   5.8083719  60.8930302  34.3265796   6.3269341
  60.9556913  35.8377266   6.3860542   6.8255895  22.3966336  18.1834221
   6.1241060  21.9286776  17.7304661   6.7688948  22.0941997  19.0898168
  57.1274042  20.5468988  40.9254742  56.5639544  20.9235740  41.6013956
  56.7564106  20.8621693  40.1013374  35.1074958  65.5068445  33.4244514
  35.3691959  64.5872211  33.3792233  35.8474851  65.9461117  33.8436079
   7.0635384  16.3586378  61.6402960   6.4885974  15.8352518  62.1986341
   6.9551015  15.9835029  60.7663679   7.5827074  40.2185440  33.6953735
   7.0431042  40.9532309  33.9874315   7.5113714  39.5741558  34.3995786
   0.6318699  52.5073338  44.5404673   1.2939446  52.8921461  45.1147509
   0.1575785  51.8924284  45.1000834  37.4429965  17.2242010  58.7949944
  38.1508231  16.5888882  58.6873484  36.8044448  16.7792189  59.3521976
  57.0429945  47.5317812  21.0391521  57.4815607  46.6925144  20.8994246
  57.0298672  47.6397562  21.9901538  36.3743663  37.5349092  66.5769720
  37.1230888  37.4096799  65.9939098  36.4767432  38.4263873  66.9101667
  77.2111702  27.0692468  39.1980290  78.0663347  26.8291402  39.5547795
  77.0174122  27.9197097  39.5922422  33.8812375  71.2837219  69.6100283
  33.6475706  70.3627300  69.4942522  34.0380931  71.6044950  68.7219238
  22.8487253  19.2813361  45.2657604  22.7908349  19.0655696  44.3349981
  23.5296655  18.7001014  45.6044626  70.1981449  35.1401925  42.4503946
  69.4289207  34.9787092  41.9040871  69.8792124  35.0434899  43.3477020
  76.0974407  24.8057556  23.0336118  76.7027807  24.9815106  22.3132586
  76.3053513  25.4716420  23.6890507  63.2806683  76.9309044  33.2873344
  63.2461596  77.4156189  32.4626589  63.1553316  77.5977230  33.9625168
  77.3240519  74.4558859  70.3587627  78.2608604  74.6523809  70.3608942
  77.2790718  73.5027552  70.4346371  74.6271610  18.1488669  20.4807973
  74.9646616  17.2551930  20.4202199  74.6818781  18.4866655  19.5868576
  52.0371723  55.7180023   6.5472335  51.8890047  56.2423897   5.7602787
  52.0442629  56.3549900   7.2616786  73.1014204  77.4290943   4.1823021
  72.2753859  76.9854546   4.3748760  73.7541437  76.7289686   4.1787016
  76.2983084  22.2560310  44.5747709  76.9663143  22.9334092  44.4691420
  76.0842037  22.2741771  45.5075455  75.4957676  44.1591167  21.7842102
  75.7727385  43.5582924  22.4759698  76.0627413  44.9231291  21.8893647
  75.2815962  30.1702046   7.3238659  74.3301249  30.2384877   7.2446740
  75.5057907  30.7658553   8.0388260   2.1285664  63.6681604  57.9979277
   2.7534699  64.0498304  58.6144114   2.6540625  63.0759096  57.4600363
  39.5251107  13.3678794  61.5803432  39.7222328  13.4653461  62.5119448
  39.4344759  12.4236321  61.4522219  54.8421907  23.3770013  68.0456924
  55.0062275  23.7941456  68.8914537  55.1325178  24.0216088  67.4003839
  49.9606943  12.7921820  11.6036212  50.5861664  12.3675382  12.1907282
  49.9187517  12.2155547  10.8407497   5.5544639  25.3071094   6.5568089
   5.2490383  26.0640621   7.0567787   6.1612362  24.8595572   7.1465194
  80.3972340  11.7654943  26.4105916  80.7419682  12.5759006  26.0355830
  80.9745502  11.0807419  26.0728765  52.1361160  27.0354748  31.3577580
  52.8212309  27.2488737  30.7242680  51.4466858  27.6780915  31.1905241
  18.6299968  17.0147133  31.5554476  18.2625806  17.0062006  30.6716108
  17.9599106  17.4415970  32.0892882   6.5172982   4.8174939  41.9428015
   6.6014928   3.9337945  42.3008776   7.2808969   5.2861798  42.2796726
  65.3714609  61.0865688  18.3688867  66.0443926  60.6648874  17.8344917
  65.7908392  61.8811655  18.6989915  83.9227962  22.2694659  13.0952919
  83.0996513  22.3858833  13.5697508  83.8459301  22.8481746  12.3367286
  25.1540589  26.7956686  29.0997720  24.9254584  26.8537402  28.1720877
  25.3302360  27.6997876  29.3600869  65.6610155  29.0746665  12.8928363
  66.3927841  28.5037494  12.6587307  65.0393200  28.4975410  13.3362913
  78.2404470  35.1783514  16.5796983  77.2988367  35.1644874  16.7512035
  78.3100367  35.1784849  15.6250310  66.5370846   4.1221997  46.3876772
  66.0983992   3.6092821  45.7089281  66.3618183   3.6454517  47.1989918
  73.5784817   6.6563970  20.0768518  73.0770779   7.4644154  19.9676156
  73.0738831   5.9954512  19.6027625  80.5383205  26.0766912  69.4822359
  79.9080896  26.7971158  69.4764423  81.1531162  26.3019013  70.1804733
  36.4615536  26.4349461  69.3843699  37.2891378  26.6720486  68.9658976
  36.1028957  25.7417846  68.8301802   0.0539557  38.2263231  20.7339621
   0.4412805  38.8408041  21.3573599  -0.4633742  38.7762380  20.1455784
  72.3049402  27.0093489  54.7741413  71.5499496  26.4998126  54.4798756
  72.4082661  27.6901603  54.1092730  67.7008629  10.2636933  24.9001241
  68.0710936   9.9912399  25.7397270  68.4540272  10.3150630  24.3116212
   8.2814127  55.9218884  69.0414762   8.7427670  55.4120684  68.3755445
   7.3561716  55.7245255  68.8958454  49.4976091  13.2643270  28.2486200
  48.9662218  13.6638522  27.5599670  50.2756405  12.9415929  27.7939367
  29.7111487  55.5778837   3.8058731  29.0027881  55.0306177   4.1449213
  29.8625469  55.2513456   2.9189211  82.3409939  54.6460915   4.9266270
  81.7350197  54.2488003   4.3011728  82.7215195  55.3865194   4.4541860
  44.0247202  43.7917089  16.7316747  44.8952818  44.1573095  16.5745580
  43.4464216  44.5539331  16.7602313  57.1799274   6.3325928  -0.1057012
  57.8720470   6.4801310   0.5388443  56.5251251   5.8130215   0.3606694
  20.8760095   3.5712343  29.0428662  21.3385034   4.4063377  29.1131067
  20.3426790   3.5253298  29.8363924  58.4268188   5.3089893  64.9100876
  59.2958355   5.7073903  64.9582434  58.1625891   5.1994812  65.8235550
  44.4327354  24.4952178  16.2648523  43.9626503  25.2567101  15.9251761
  43.8545465  23.7549853  16.0805023  19.3895376  18.7068319  25.6584048
  18.6609733  19.3061507  25.8204055  20.1630688  19.2702591  25.6376266
  40.2553034  71.5027952  67.2601318  41.1299944  71.2655115  67.5680971
  39.7710156  71.7182398  68.0571795  49.0554714  74.6307945  14.8987687
  48.1330252  74.5344257  14.6620452  49.1823149  74.0174770  15.6226361
  83.1088734  34.1851401  25.2439547  83.4872341  34.5789981  26.0300541
  83.0815983  33.2476282  25.4351568  27.7195764  15.6371498  21.7378592
  27.7746320  15.0654912  20.9720874  28.5045719  15.4329574  22.2461128
  64.4921017  35.3722668  67.3128748  65.1692200  35.0516939  67.9086733
  64.4410801  36.3113022  67.4913216  79.1850519  21.6773605  32.6106930
  79.2741156  21.5418935  33.5540652  78.8351488  20.8493328  32.2818017
  77.1962452  64.4651604  30.1658201  77.2194195  63.5095501  30.2158904
  77.0443487  64.6528530  29.2395759  68.5556459  49.1462231  21.6666150
  68.0102682  49.0605736  20.8846569  67.9446268  49.0474653  22.3967743
  32.7627134  43.5562229   8.9819694  33.0611944  42.9302359   9.6417296
  31.9176030  43.2132816   8.6914277  85.0114918  58.3966255  33.6026978
  85.1007843  57.5961399  34.1198874  84.3823814  58.9280653  34.0905690
   2.3467335  61.2808990  32.2885680   3.1883395  61.6692019  32.5276327
   2.4939501  60.9060144  31.4202237  69.6636486  81.3013554  14.4582677
  69.9884987  81.4880466  15.3390920  69.2870092  80.4237556  14.5229018
  76.5784931  40.6071281  69.5217323  75.6444740  40.7062960  69.3373442
  76.7510080  41.2311029  70.2268028  48.3057499  68.1773043  42.7195644
  49.0826082  68.6674166  42.9888439  47.5769281  68.6338711  43.1397963
  45.5928135  52.4143791  17.5663555  44.9873924  51.9032764  18.1034565
  45.1103783  53.2140923  17.3567116  14.8756289  46.6483212  63.0054951
  15.3634620  46.5627337  62.1863937  14.9160743  45.7773542  63.4004784
  70.5018187  79.4612503  66.2548590  71.2664700  79.8708391  65.8501720
  70.7577515  79.3250370  67.1670961  35.4891968  69.3967962  67.2548294
  35.3402162  70.2916145  66.9493246  35.2546167  68.8464260  66.5076351
   4.9971780  65.5308247   5.4517627   5.6698048  64.8518181   5.5042362
   5.0008237  65.8011150   4.5335245  17.4622941  16.6589808  21.4826083
  16.7930067  16.1997902  20.9752321  17.9606950  17.1519661  20.8308458
  77.6448917  26.2397194  35.0170350  77.4108410  27.1282554  34.7487926
  77.2883320  25.6796265  34.3275499   7.1068829  42.6176119   8.2419533
   6.4620411  42.4575186   7.5529093   7.8237534  42.0150661   8.0437869
  63.9472485  45.9684658   2.6823601  64.4337654  46.4205313   1.9930306
  63.0282593  46.1493397   2.4849550  80.6784534  40.7455111  21.8442178
  80.3369713  39.8523092  21.8016458  81.2554169  40.8178425  21.0838795
  61.7931795  57.2794151  16.2010550  62.2112751  56.8370676  16.9398093
  61.3501596  56.5790319  15.7220709  84.2468739  57.5299120   5.0003773
  84.6905518  58.3779383   5.0157756  84.3857956  57.1709681   5.8767837
  84.1799831   0.2705963  28.9043713  84.8819637   0.7240322  28.4376216
  83.9499474   0.8602621  29.6224284  47.6956415  55.5144167  18.2899392
  48.4730864  55.0824308  18.6437726  47.2803736  55.9208298  19.0506065
  64.1787148  80.7795620  60.1633358  63.2264233  80.6927109  60.1205397
  64.4625092  80.7578850  59.2494297   5.3310794  26.8513227  29.1208625
   5.1348996  26.6106343  30.0262976   6.1403894  27.3592424  29.1780257
  54.6774483  39.8423529  64.0494585  54.6892452  40.5176783  63.3712006
  54.4994450  39.0299892  63.5755205  73.1888485  62.7127409  45.8408546
  72.3129654  62.7621031  45.4579306  73.7818050  62.8171730  45.0967264
  75.6916761  51.6724777  22.2154522  75.7856798  51.9834661  21.3150740
  76.3960981  51.0333538  22.3228741  15.3150260  39.7718906  10.8726716
  15.6079125  39.4588351  11.7285025  14.8873067  40.6081295  11.0570562
  11.7689133  51.7619944  36.7169309  11.1617088  51.9993639  36.0160804
  11.2061727  51.4533281  37.4270558   8.2117319  20.6529713  38.2858777
   7.6132458  20.5616403  39.0272975   8.7147778  21.4438176  38.4801459
  71.4495897  37.1508598  44.9308634  71.3403797  37.5389385  45.7990217
  70.6268263  37.3388529  44.4792557   5.4547679  45.3009033   2.3629153
   5.9631425  45.8931494   1.8088117   5.0564861  44.6825552   1.7503396
   7.3101717  10.5426586  17.4320364   7.9044205  10.6849861  16.6952574
   6.7503005   9.8186225  17.1517718  76.5853214  55.2715635  54.1323328
  77.1401787  54.9257183  53.4332228  76.0039902  55.8916521  53.6921310
  60.7971382   4.3816447  11.3052881  59.9990940   3.9498255  11.6100705
  60.5803919   5.3139818  11.3065004  79.9120426  57.7919674  25.3710079
  79.8061323  57.5015831  24.4650888  80.0014973  56.9820309  25.8732367
   5.2525932  48.6216164   7.3504329   5.7196581  49.1311979   6.6883099
   4.4256964  49.0880919   7.4723947   8.9637226  46.6605902  48.6465549
   8.7141353  47.2904253  49.3227577   9.3758333  45.9431458  49.1278791
  24.5877075  28.8479924  51.8171120  24.1162729  28.1563187  51.3528204
  25.3879333  28.9759707  51.3077068  74.1175175  47.8224039  33.2176328
  73.8266420  48.4694624  33.8602400  73.7328863  46.9984007  33.5164690
  56.8709564   3.4699714   4.1836569  56.3377333   3.8806573   4.8642769
  56.2414742   3.2075617   3.5119969   6.9817102  34.4497585  62.6288271
   6.6732180  35.3499317  62.7325201   7.0758706  34.1242218  63.5240316
  14.4980538  27.3114753  68.9493895  15.4031444  27.0399880  68.7966299
  14.5433307  28.2646537  69.0244389  65.8602476  46.8899775   0.6638699
  65.6772614  46.5961266  -0.2285421  66.7109060  46.5043116   0.8733369
  36.9645905  40.5137634  54.1843843  37.0854211  39.5879149  54.3951941
  36.1866522  40.5329418  53.6269999  74.0603876  44.7660208  56.9489527
  74.8103809  44.2001152  56.7659378  73.9323235  45.2627707  56.1408281
  21.4791274  17.1485627  65.5138063  21.6467500  17.8225863  66.1724615
  21.3363814  16.3489842  66.0202980  86.6832733   7.3650587  13.2199574
  85.9299278   7.9506922  13.2956314  86.7824554   7.2228116  12.2785962
  20.6534600  81.5145302  13.8213670  19.8392522  81.8133450  14.2263472
  20.3790140  81.1239338  12.9917002   1.6200444  13.7221241  64.5551538
   1.6752926  13.6058080  63.6066580   0.7727215  14.1446447  64.6956968
  69.2775679  62.5235224  56.8531227  69.5176792  62.1411037  57.6971197
  68.3839512  62.2179317  56.6972494  48.4791231   0.9673416   7.7128506
  47.7314711   0.7450874   7.1580052  49.1514874   1.2658913   7.1004546
  17.2482109  50.6500816   7.5632560  17.2751284  49.7109842   7.3799270
  16.3168824  50.8484936   7.6606780  15.1961029  51.4923239  44.9690628
  15.8505881  50.8060169  45.0989342  14.3679833  51.0202026  44.8821592
  47.5598192   5.9234107  17.7453613  47.2003317   5.2814293  17.1331012
  48.4457207   6.0910076  17.4239242  21.4345765  40.5501032  16.7394507
  20.4833293  40.4449463  16.7568231  21.5809536  41.3139534  16.1814737
  29.0619588  76.1395645  34.0641356  28.1431603  76.1489630  34.3323731
  29.5437455  75.9396029  34.8667121  27.3824525  37.2784114  60.5574560
  27.9019475  36.7171335  61.1330605  26.8103576  36.6733098  60.0854445
  17.4348199  26.3238525  68.1512737  17.7714884  26.0926485  69.0169716
  17.8879678  25.7309031  67.5518560  13.3524525  50.2609634  49.9029922
  14.1671073  50.7475567  49.7773027  13.1549919  49.8974323  49.0398121
   9.8161745  65.7814503  52.8666687   9.6619880  66.4397144  52.1890640
   9.9078828  66.2863874  53.6746645  27.5898409   8.2157588  23.5331130
  27.2696614   8.9660287  23.0323005  28.5403395   8.2424772  23.4232473
  66.5637445  18.5971236  16.1014271  66.6270256  17.9919660  15.3625011
  66.4335537  18.0322599  16.8631434  71.6596460  37.8790593  57.3650312
  72.3132277  37.7071977  58.0429173  71.3780355  37.0103812  57.0781088
  28.1464863  31.2579584   9.2062646  29.0777421  31.0999632   9.0512419
  27.7727199  31.3642812   8.3314925  65.7178974  63.0261660  49.6237087
  64.9551773  63.3582926  50.0971889  65.3916979  62.8427410  48.7426996
  77.8059530  12.3609138  12.7932060  77.7033043  12.7563703  11.9275796
  77.2292566  12.8728259  13.3603060  10.1883757  42.9462481  58.9051723
   9.7088963  42.2409201  59.3397331   9.9467760  43.7348318  59.3909645
  17.1592259  42.2903824  48.7609863  16.2724519  42.0455599  49.0254211
  17.0371974  43.0411053  48.1798220  81.1253834   6.1857015  13.4175277
  80.6928349   5.8151734  12.6482153  81.3909531   5.4241377  13.9330125
  74.3902016  47.4802494  12.1917117  74.3815041  48.3010769  12.6840520
  75.0250006  47.6281309  11.4907205  86.5933216  54.3615913  63.8861275
  86.6972355  53.6968374  63.2052898  86.1203410  53.9140034  64.5876884
  25.6688118  79.8226881  46.9843388  26.4228725  80.3638363  46.7502785
  25.7717729  79.6612072  47.9221821  33.5358739  76.8394756  30.2157545
  34.2803383  77.4319506  30.1110029  33.4331036  76.4297867  29.3567872
  55.9503889  25.2195168  18.1254292  56.6115427  25.8976698  18.2640684
  56.3504553  24.4210148  18.4697747  62.7107811  48.8608313  47.8456402
  62.3520803  49.3078804  48.6122608  63.6481237  49.0528345  47.8732014
  25.6858850  50.9135818  70.1731777  26.3291860  50.3352118  70.5829144
  25.4723859  51.5535545  70.8522129   3.8469681  47.9678679  51.2644005
   4.2192775  48.8386965  51.4032412   4.1538259  47.7120924  50.3945494
  31.2187600  36.8921280  22.8330135  31.9338775  37.5179958  22.7184367
  30.6976843  37.2525549  23.5505152  68.5838413   4.8612002  69.1304016
  68.5784531   5.8145976  69.2154646  69.2597818   4.5699522  69.7423792
  67.0094585   7.9026270  22.4776745  66.8263102   8.2814205  21.6179037
  67.7786779   8.3788633  22.7902865  73.0647707  76.3024569  57.5930452
  72.5937176  76.0790968  56.7902660  73.8617516  75.7734632  57.5581646
  10.9100044  66.1592102  61.0303974  10.0568974  66.2371778  61.4574337
  10.9574604  66.9186497  60.4496813  69.9762440  50.4350328  69.6933460
  70.5995226  51.1431456  69.5310926  69.1176128  50.8546114  69.6391392
  36.7375207  16.1763275  37.1543026  36.6460109  16.4401007  38.0698800
  37.2649217  15.3781796  37.1865582  12.2883642  68.3390427  50.8767176
  13.0457437  68.2926893  50.2932262  11.9842243  67.4341536  50.9467411
  78.7357473  62.8004932  64.5885229  79.3916893  63.4976006  64.5907640
  77.9954863  63.1666088  65.0724697  13.5922825  61.0920238   1.3086958
  12.7171731  61.4797115   1.2978821  13.9656770  61.3197708   0.4572618
  69.6792412   5.6806451  18.2806945  69.8819208   6.5556598  18.6116052
  68.8609743   5.4432029  18.7169170  77.7819681  36.8272781  30.7883024
  77.7062321  36.6578555  31.7273402  77.5037527  37.7374148  30.6859279
  84.2518044  49.6794987   4.9260220  83.3342266  49.4090652   4.8920190
  84.2899036  50.4663515   4.3822926  20.4776096   3.0402979  33.4502792
  19.7391868   2.7964324  32.8921652  20.2978492   3.9457971  33.7032390
  32.7498317  14.9265075  23.7612534  33.5130167  14.5151377  23.3555984
  33.1035566  15.3937197  24.5181060  85.9321880  15.1527476  64.9185896
  84.9896049  15.1064050  64.7585392  86.0144234  15.1341438  65.8720684
  57.9909325  53.9742613  58.2639122  57.9228163  54.8624325  58.6142635
  58.9317274  53.8260412  58.1682158  81.4214420  74.3699503  42.9614258
  81.8066978  75.2401400  42.8585815  80.6248951  74.3964911  42.4312925
  66.8540001  63.1872177  70.6049967  66.3193750  62.8235626  69.8991919
  67.6901484  63.3964157  70.1886749  63.5388851  52.4548817  69.3987989
  63.9643526  52.3423672  68.5487700  63.7066364  51.6337204  69.8611641
  85.6179714  69.3398476  65.0643587  86.1006260  68.5869646  64.7231245
  86.0416412  70.0981903  64.6622896  70.1493883  26.1214423  11.6200805
  70.3273010  26.1644864  10.6805444  70.8961296  25.6456399  11.9836998
  33.1314874  64.4449806  41.7043018  32.2732568  64.0327501  41.8029976
  33.0243182  65.3158379  42.0868635  47.2032452  13.0566072   7.5846684
  47.8813314  13.6391425   7.2424972  46.9938707  13.4137142   8.4477258
  31.7586374  28.0400538   7.4981171  31.7062998  27.4470973   6.7485195
  32.6647568  28.3485627   7.4966568  70.7107973  68.5040665  67.3589325
  70.6539392  69.1753483  68.0389214  70.1322031  67.8050041  67.6635122
  29.9301338  61.7655754  34.9598432  29.4893384  61.7341661  34.1107583
  30.2607346  60.8769226  35.0910950  63.9960814  29.3367362   1.0824651
  64.7399855  29.0335274   0.5619833  63.5150242  29.9201155   0.4955354
  16.2319195  37.8071475  28.2989168  16.2711358  38.3459020  29.0891290
  15.6797302  38.3054805  27.6964378  69.0346193   7.2455680  14.6948481
  69.6251392   7.2274607  13.9417303  68.3445215   7.8593874  14.4433999
  39.6257496  37.7821612   6.1371809  39.7864342  36.9219208   5.7493675
  39.1779757  37.5932598   6.9618297  18.3936894  42.5608015  68.2404423
  17.7509987  43.2330608  68.4668303  18.9837337  42.5302601  68.9935350
  18.9246869  75.9444237  52.9756546  18.5766268  75.7985830  53.8553190
  18.1551051  75.9224701  52.4068880  86.2076187  33.5842133   5.5460346
  85.5645847  34.2733288   5.3791243  86.6134357  33.4238529   4.6940786
  56.8866920  74.3002892  47.6516676  57.1685553  74.9613285  47.0193624
  56.3440657  74.7820044  48.2759619  73.2844400  21.2020755   0.2687321
  73.7101507  20.9726620   1.0947890  72.3479319  21.1603403   0.4622381
   9.8853147  62.7836418  43.9056635  10.4297733  63.5504723  43.7274361
   9.0041786  63.1380224  44.0250111  55.7112408  19.7516060   5.7456869
  55.0443935  19.1465735   5.4209054  55.6850910  20.4875827   5.1342231
  24.7127771  63.8816452   8.3248210  25.0403023  64.7623920   8.5071397
  24.0965390  63.7034369   9.0352607  15.8242726  72.6107597  42.9614544
  16.1370516  72.7576637  43.8541031  15.8695889  73.4723616  42.5469446
  23.1814241  62.7877283  52.8037405  23.8763142  62.5827312  53.4293079
  22.3718262  62.5669813  53.2642317  64.2184544   9.5865184  18.8520217
  64.5262957   9.3168819  17.9867101  63.8260078   8.7964618  19.2235386
  20.1725125  56.2653637  65.0267792  19.3387985  56.1667013  64.5669794
  20.8338714  56.0256529  64.3776464  24.5562482  76.3593769  60.6510925
  25.0568604  75.5476475  60.5691385  23.8339329  76.2589359  60.0310898
  62.9384804  78.4803343  14.0145695  63.8228798  78.6707830  14.3272984
  62.3703814  78.7042427  14.7517002  25.1680326  25.2942681  57.2267103
  24.4997716  25.5756450  56.6018200  24.9187875  24.3992758  57.4571371
  57.4448061  26.8244290   3.5696098  57.6884794  25.8990955   3.5447747
  56.5515757  26.8461871   3.2262537  68.8091421  28.8501143  39.5516443
  68.6541224  28.9025092  38.6085343  69.1497183  29.7132397  39.7867036
  31.5050626  10.2459204  21.5315056  30.8206344  10.6825709  22.0385814
  32.0092320   9.7563887  22.1814299  27.7190566  55.4262257  58.8825226
  27.8528309  55.0745726  58.0023623  26.8934155  55.9071445  58.8253641
  11.6598368  47.6186848  11.3398671  11.1444998  46.8335342  11.5247965
  11.2746727  48.2947874  11.8973327  10.4041171  52.0924520  62.3978424
  10.9179986  51.2862206  62.3514891  10.9813595  52.7197123  62.8332376
  80.1763630  54.9795055  54.7924423  81.0535049  54.5981789  54.8303699
  79.7532177  54.5343637  54.0582561  54.4922924  75.1289082  16.4730167
  54.5704174  74.4454098  17.1385694  54.8179626  74.7205067  15.6709075
   7.8779644  80.8282661  44.9543047   8.2516527  81.3123035  44.2178965
   8.3922911  80.0221062  44.9967289  50.2989054  28.6034918  10.3270459
  50.6487751  28.0865335   9.6013874  50.0755548  27.9565144  10.9961987
  60.9943962  14.6848822  40.9506035  61.9398499  14.5363271  40.9338331
  60.8206654  15.2106225  40.1698065  16.8099749  81.0372639  51.0028791
  17.3151553  80.3759670  50.5298996  16.9492531  81.8445110  50.5077124
  84.2931747  41.6673517  11.3555777  84.1875458  41.2883234  12.2281682
  85.2185535  41.9076729  11.3092482  79.5549440  21.8690205  20.2529812
  78.8831949  21.2017941  20.3936768  79.3970776  22.5164509  20.9401083
  33.1942391  15.0601113  10.8544123  33.5517788  14.8468721   9.9924803
  32.2526598  14.9120569  10.7664454  53.1722021  15.5368161  12.3187411
  52.6703358  14.9490702  11.7540145  52.6199818  16.3136709  12.4069428
   1.0231818  26.1272383  69.9871874   0.6633262  26.8674922  69.4985580
   0.2649951  25.7345271  70.4198122  56.6384268  71.4894104   0.4001103
  56.9636536  72.3090506   0.7724711  55.8819342  71.2639189   0.9415004
   6.0776472  67.1776199  51.4222956   6.2782937  66.5031958  52.0712376
   5.1917267  66.9688702  51.1259842  53.0138350  25.5603695  14.1701686
  53.9243841  25.5933070  14.4634986  52.8371716  26.4405823  13.8381374
  53.5585070  18.2478690   4.8094347  52.9514790  18.4484887   4.0970466
  53.0202579  18.2841969   5.6001306  11.7286348  69.3136406  21.6594005
  11.4722764  70.1881504  21.9522309  12.5329208  69.1253138  22.1430206
  21.6912079  36.4577723  67.4936914  22.1480775  36.8503356  66.7497873
  21.8323469  37.0730424  68.2132435  15.3493762  60.9165382  43.2347536
  16.0091555  60.9785366  43.9254618  15.7980978  61.2229013  42.4467039
  78.2791567  45.4989195  47.8549194  78.8663387  45.0784206  47.2267199
  78.6398745  46.3782549  47.9684258   2.7648538  53.0166912  15.3113902
   2.7926821  52.1046734  15.0221121   2.0808822  53.4173775  14.7748590
  66.0564375  50.1579475   8.5833859  65.4468679  50.6833124   8.0650783
  66.9215155  50.4938698   8.3488059  49.1840076  46.9936275  10.5921686
  48.6109018  47.3413992  11.2754238  49.9298763  46.6284370  11.0681331
  56.0886526  44.2258501  24.2093229  56.4972782  43.6953878  23.5253143
  55.6596088  43.5896778  24.7815466  37.8933358  40.6090975  65.0819921
  38.5899639  40.6556320  64.4271851  37.1111584  40.3731871  64.5832157
  20.7396865  57.0942640  62.0904112  20.1742148  57.8478670  62.2593927
  20.1393914  56.4012861  61.8153477   6.6376060  60.8122349  39.3560433
   7.1398264  61.1665154  40.0898647   5.7429308  61.1160755  39.5092392
  38.9301753  26.6208839  26.4002228  39.1246271  27.4106693  25.8955860
  38.0436707  26.7613673  26.7327976  62.0952463  40.1007700  14.6301210
  61.3509893  40.0282907  14.0325761  61.7310333  39.8986745  15.4919434
   0.8159553  25.8866477  31.0428691   1.6183127  25.7839894  30.5310917
   0.3762296  25.0394392  30.9713864  83.6742783   4.9015507  57.6887035
  83.9161491   4.0693623  58.0951405  83.8280106   5.5549872  58.3710670
  10.8431864  71.7594528  63.8442707  11.0736573  72.6649284  63.6363602
  11.6654718  71.2771416  63.7579393  75.6962967  65.9934998   5.6847125
  75.8032227  66.2871981   6.5894437  74.7609234  65.8077526   5.6021571
   9.5119321  60.7464695  45.4877996   9.9946564  61.3855791  44.9636316
  10.1045799  59.9981451  45.5585527  21.5164304  67.5877285  19.0326440
  20.7990170  68.2026720  18.8796890  22.2521353  68.1393433  19.2985249
  22.9112864  63.2873535  69.7824287  22.6454973  63.9549208  70.4148436
  23.7347698  62.9436541  70.1288080  68.2368422  20.8227515   9.9555194
  67.6639938  21.4129543  10.4451454  68.3322906  21.2380147   9.0983856
  29.5002151  55.4662418  53.1751394  29.8402023  54.5791912  53.0577278
  30.2739501  56.0276747  53.1266117   8.0281717  57.0619392  50.1932526
   7.3089778  56.4814186  49.9442720   7.6371157  57.6739025  50.8167934
  20.8029032  53.6646414  62.3825836  20.1730633  52.9970980  62.1107054
  21.1659360  53.9995050  61.5626431   1.1736244  76.0536909  51.5856409
   1.3540317  76.9809246  51.4309597   2.0128348  75.6182289  51.4362097
   5.9467936  81.6312218  46.7397118   5.8727413  80.8249474  47.2502708
   6.5613139  81.4150238  46.0383844   3.6539856  70.8626556  55.2534199
   4.0028846  71.6578388  54.8506975   2.9179755  71.1663628  55.7847261
   7.1985638  63.6925411  62.9904795   6.5194440  63.6019278  62.3220348
   6.7535824  63.4889555  63.8131428  56.1254644  56.9062424  52.6620674
  56.1999941  55.9671688  52.4923182  56.0463142  56.9720745  53.6137152
  34.8667240  18.3118725  64.7783995  35.7999682  18.2260251  64.9731207
  34.4504595  18.4017158  65.6356525  17.7892578  52.8871107  63.9814711
  17.5068736  52.1857357  64.5684671  18.7399054  52.7879715  63.9297724
  71.9318247  47.0412445  10.9893882  71.7143774  46.1107349  11.0450959
  72.7755260  47.1171474  11.4350820   2.3331493  44.2934179  69.8794699
   1.8627691  43.7719440  69.2290545   2.2659668  45.1929808  69.5593119
  57.1855354   4.8928460  16.8512869  56.2373686   4.9513862  16.9686866
  57.3135948   4.9496844  15.9043968  37.8048038  77.8205252   5.8375537
  38.6900377  77.6316166   5.5262566  37.8433728  78.7307024   6.1313647
  81.9231415  59.3102169   0.4888259  82.1097279  59.6605492  -0.3821968
  82.7788448  59.2588568   0.9146909  38.1876731  30.3644204  14.0095091
  37.7955198  30.6786394  13.1948221  37.5249171  29.7859645  14.3868327
  84.1782856  67.4161243  54.0847015  83.4036350  66.8576479  54.1498995
  84.5589352  67.4011612  54.9628353  70.8872080  22.0478010  22.6313686
  70.0614882  22.0149517  22.1483183  71.1445570  21.1309671  22.7284169
  72.9768322  81.3911959  40.3099728  72.2613714  81.3912641  39.6740890
  72.5406228  81.4253903  41.1613131  10.2787709  80.8496761  10.9013915
  10.3646970  80.5642891   9.9917728  10.3656495  80.0458717  11.4138222
  70.5347252   5.8887547  22.1650195  70.8644724   6.2709498  22.9783010
  70.3763294   6.6405177  21.5940595  61.2816811  68.7969112  14.4138682
  61.4843988  67.8910065  14.1804755  61.5717888  69.3093252  13.6592162
   3.3874142  53.6527205  63.3428621   3.0654261  53.2176447  64.1323328
   4.3122551  53.4104061  63.2961226   5.4356188  13.8323331  46.1774635
   6.1427963  13.9149559  46.8172312   4.7051311  13.4636927  46.6741753
  34.0737367  16.1458397  31.7999601  34.3292308  15.3438532  31.3441372
  34.8244596  16.3549685  32.3557615   6.2318116  14.9130237  19.6660054
   5.9073806  15.0986254  20.5472136   7.0114976  15.4611826  19.5774400
  25.2459741  56.0381603  56.5470552  26.1429238  56.0336256  56.8812561
  25.1968813  55.2668381  55.9823608  37.0189023  65.9128666  69.2553616
  37.7718687  65.9534979  69.8449564  36.3032198  66.3079739  69.7532797
  23.6506748  64.0885687  45.1672125  23.8879991  63.2092762  45.4617548
  23.1128621  64.4415712  45.8759975  11.5945911  63.1586504  49.4337416
  11.2736082  63.1496239  48.5320139  11.1695468  63.9183998  49.8316813
   2.9485312  77.2089434  13.3297050   2.3845744  77.8941917  12.9710627
   3.7061599  77.6796865  13.6770272  32.3958635  64.7183847  60.0829315
  31.6465569  65.2953768  60.2307653  32.9503894  64.8438835  60.8529902
  -0.1186541  22.7594614   3.2769090   0.1423246  22.7116108   2.3572177
   0.1528533  21.9194674   3.6469394   2.2075762  74.8394535   0.3758137
   1.3614859  75.0341962  -0.0272234   2.8524079  75.1179693  -0.2744587
  76.3078308  23.8272810  67.2534227  75.4182339  23.6114573  67.5331926
  76.6003036  24.4921446  67.8768349  41.0836744  28.4457350  30.0141668
  40.1480532  28.6036491  30.1402712  41.1905336  27.5065637  30.1650643
  67.8115177  74.7636366  58.3660364  66.9094849  74.7002029  58.6799669
  68.3113146  75.0514126  59.1299868  25.2033567  42.3374653  24.4313335
  25.1791883  42.2665071  23.4770727  24.7000098  43.1281328  24.6255374
  75.4194689  12.4191368  37.8335524  74.8812151  11.6295147  37.7786732
  76.1327934  12.2663057  37.2138405  46.9116735  36.8112350  68.5876560
  47.8453350  37.0107698  68.5191298  46.5538454  37.5201440  69.1221094
  21.7774796  17.0027602  15.8328283  21.0793948  17.4862707  15.3910959
  21.4339399  16.8341672  16.7102039  11.2390006  44.1933584  44.7709799
  11.3771343  44.3368769  43.8347387  12.0225501  44.5532417  45.1866293
  56.3344574   7.3190051  11.0958672  56.2952948   7.3375171  12.0520866
  56.8474340   6.5369350  10.8922613  11.9554234  49.6886683  61.7224741
  11.7071736  48.8450956  62.1006155  12.2804940  49.4729614  60.8483887
  11.3986218  50.5554342  29.2130351  12.0648313  50.7897377  28.5668945
  11.0718262  51.3953543  29.5354795   8.0880588  68.1562853   8.2431966
   7.3334593  67.7790976   7.7909344   7.7093756  68.7852383   8.8574016
  52.0768118  66.6004848  15.7730114  51.9084787  67.1710300  16.5229273
  51.3446140  66.7639732  15.1785505  67.8799486  28.3365154  10.0997496
  67.6061869  29.2521811  10.0464201  67.1742773  27.9031181  10.5797791
  32.6857734   3.5779157  48.5592842  32.3707175   4.4633219  48.3775473
  33.0904460   3.2946858  47.7393723   7.7371967  45.8353329  57.9629850
   8.0391669  45.5763578  58.8336039   7.0700204  46.5012884  58.1291580
  48.5486650  79.3689537  62.4762917  48.6224794  79.0841770  63.3871603
  48.7167120  78.5782003  61.9637537  15.0244653  52.5496674  39.5343852
  14.9276197  52.5870848  40.4859400  14.5485640  51.7603540  39.2760539
  84.5807552  56.5629053  35.5003500  84.6113110  55.6425285  35.7615185
  84.1134167  56.9987154  36.2130213  54.0884066   8.7383801  11.7422581
  54.9259138   8.3793610  11.4491391  53.8542700   8.2085878  12.5043154
  20.0714493  40.6848621  30.0219011  20.4256248  41.1987114  29.2961264
  19.4550657  40.0801373  29.6088457  70.3937531  44.3708897  38.2746506
  70.8405256  44.0526009  39.0590715  70.8991432  45.1380587  38.0058241
  27.9265642  16.3812423  27.9875612  28.5152435  16.0155094  28.6478090
  27.7751756  17.2818828  28.2741976  83.2566357  28.6335969  64.4138622
  83.2039738  27.7503562  64.0487003  82.9367352  28.5412121  65.3112793
  57.0337057   3.8207173  55.4246044  56.4002466   4.4575885  55.7552958
  56.9400120   3.8617247  54.4728851  52.9393673  14.0701389  62.3592472
  53.0959558  15.0022900  62.5102568  52.7336407  14.0098798  61.4263630
  48.9200020  17.7099109  65.6635666  48.2183456  17.7076137  65.0124836
  48.5533857  18.1853008  66.4091015  71.4310074  12.2046828  25.7394338
  72.1028185  12.8722119  25.6004763  70.9142065  12.2136402  24.9337864
  59.6473265  62.2477436  58.3714151  58.8489151  61.7271566  58.2833147
  59.9706602  62.0437288  59.2489481  16.1423123  25.9176493  12.4297547
  16.1176288  25.8738279  13.3856320  17.0731616  25.8703494  12.2117805
  77.0718622  34.2109942  26.0837698  77.1542931  34.0162015  25.1502323
  77.8961658  33.9088726  26.4651799   8.9932972  46.8267679  15.1447415
   8.3645642  46.9286299  15.8592689   9.4486082  46.0080433  15.3412402
  28.2816529  67.5702477  54.6831703  28.5735440  67.9922771  55.4912043
  27.3799062  67.3048162  54.8638201  79.8203087  52.6759243  16.7535949
  79.9807739  53.1715250  15.9505606  80.6754780  52.6290464  17.1810400
  61.8531847  26.0822892  69.8968792  62.1525812  26.6146946  70.6338596
  61.2625694  26.6573238  69.4103193  76.8557835  15.2743661  15.3556967
  76.5121984  14.4299734  15.0638366  76.7998028  15.8358932  14.5825303
  69.9749756  58.9323997  27.2844744  69.9058628  58.9371443  26.3297844
  69.0828514  59.0966940  27.5900149  13.1152987  57.1800423   7.7899921
  13.2661748  56.4449692   7.1957421  13.5911298  56.9454908   8.5867369
  43.6724854   7.2485304  33.8538599  43.0424404   7.8191859  34.2938876
  44.4720411   7.7719128  33.7989163   2.4778648  38.1738710   1.9562583
   1.5533686  38.2298875   2.1979205   2.8167921  39.0575504   2.0993274
  33.3030295  68.7073135  69.1815376  34.1281676  68.7076044  68.6963797
  33.4457040  68.0869150  69.8963642  65.6835222  74.4590759  27.4214029
  66.3480759  75.1215506  27.6104140  65.0179148  74.9250793  26.9153953
  57.5077677   6.5718561  69.0193176  58.3716965   6.3479590  68.6732912
  57.6425600   7.3977792  69.4839811  47.5658417  32.3587680  10.3766632
  46.8650866  32.8864479   9.9936062  47.3861885  32.3681974  11.3168061
  15.1049376  47.7692795  45.3840971  15.4705346  48.6504459  45.4623175
  14.6628308  47.7678919  44.5351171  77.0142412  76.4032936  37.8391266
  77.6608562  76.5951204  37.1599245  77.4992609  76.4818239  38.6606026
  24.5824838  56.0678101  43.9953947  24.8731041  55.2043772  44.2890930
  25.1274467  56.2569332  43.2315350  25.0359869  54.4888067  28.6494160
  25.2759409  53.6346912  28.2900524  25.8364415  55.0096035  28.5840535
  58.5330057  52.8467035   4.4264600  59.2927217  53.4119320   4.2865252
  58.8801622  51.9573641   4.3572867  59.6079683  20.6470561  61.0066223
  60.2962065  21.2998724  61.1346436  59.6577024  20.4258060  60.0766706
  48.3700418  15.5517733   5.5442679  48.8034582  16.2514579   5.0555736
  47.4823332  15.5246317   5.1872402   9.1012937  77.3253393  70.8080626
   9.3261611  76.6580153  70.1597261   8.9275938  78.1122398  70.2914858
  80.8996582  14.7755182  12.3385227  80.5254459  13.9148319  12.5267136
  81.7636108  14.7562647  12.7501631  51.1853600   0.0873035  67.2667694
  50.8358908   0.9241164  66.9604254  51.7319536  -0.2227234  66.5447235
  57.5908184  12.2942913  27.2376680  56.7560387  12.1295238  27.6761007
  58.0014467  12.9859567  27.7565289   0.3781649  66.9811392  56.7377138
   0.5056141  67.8201723  57.1804523   1.0438868  66.9696474  56.0500288
  21.2831306  79.9477577  63.1336927  22.0244241  79.4115114  62.8523445
  21.0291457  79.5800638  63.9801741  77.8111506  26.9604206  -0.0354914
  77.6391363  26.0189676  -0.0531091  78.3483124  27.0911694   0.7459108
  16.3048995  35.6669092  16.0000682  16.9893003  34.9994969  16.0489464
  16.6326272  36.3860369  16.5401435  61.9560242  20.0540757  22.2324610
  62.2504044  20.7792497  21.6813731  62.4921703  20.1207471  23.0226088
  72.6812649  53.2058668   4.7822601  72.8394794  53.9965153   5.2980816
  71.8869114  53.3995628   4.2845488   0.7807703  50.3272438  50.4222345
   1.6186635  50.3392124  49.9596119   0.6830823  49.4219637  50.7174540
  80.2662849  67.7802801  55.8210516  79.7772264  68.2727528  55.1618719
  80.8303928  67.1963406  55.3140640  70.1691198  16.0506094  64.1011238
  69.9787092  15.5643034  64.9032974  69.3646955  16.5363050  63.9188242
   4.4733289   7.3349130  65.4793549   5.0807977   7.2110850  64.7500515
   3.6165863   7.1061862  65.1189280  46.4799500  40.3587675  59.7036695
  45.8523178  41.0814810  59.7035933  45.9440422  39.5761323  59.5751381
  69.8241472  46.3772869  59.0576839  70.6108236  45.8745003  58.8465548
  69.9991512  47.2524071  58.7115955  74.6386766  42.1938848  17.7531052
  75.5225897  42.5368452  17.6215529  74.0957689  42.9723549  17.8774703
  71.0848999  29.0041542  17.5532937  70.2760124  29.5139885  17.5980675
  70.8004427  28.1251550  17.3029387  58.7418461  58.1497478   8.9942145
  58.4686375  58.2308960   9.9080008  59.5745802  58.6197281   8.9505613
  66.2215042  50.4178858  39.5508075  65.9741545  49.9727392  40.3612995
  67.1118212  50.7305813  39.7113967  25.0262380  71.4966059  22.6169467
  24.5460081  70.9113455  23.2026792  24.4890857  71.5372133  21.8257141
  38.4511614  81.4637566  57.2582912  38.7066364  81.9782543  56.4926147
  39.2654800  81.0594940  57.5577688  82.2582626  55.0621271  58.4100008
  81.9093990  55.0268650  59.3006659  82.6189041  54.1883755  58.2592630
  37.7335072  80.0313950  46.5885735  36.9435596  80.1687145  47.1114111
  37.5768852  79.2057562  46.1302900  19.2651570  52.6118898  69.3809271
  19.5125508  52.5860405  70.3052473  18.6121464  51.9181871  69.2882776
  62.9940796   7.4200749  56.3581848  63.0850077   7.3024410  55.4126024
  62.7165699   6.5626073  56.6806269  50.1485157  27.2903872  46.2763071
  49.7813845  26.8796206  47.0590687  51.0737562  27.4192595  46.4850044
  60.4252768  26.5765810  11.0301995  60.1180363  25.7563663  10.6440878
  61.3762283  26.4779067  11.0768831  19.5054984  10.9803379  69.5374680
  20.4586673  11.0655904  69.5167017  19.2632449  11.2177062  70.4325676
   4.4659454  40.8691502  10.1315761   4.8563346  41.5956688   9.6457738
   4.1790128  40.2555466   9.4552714  66.2627792  38.0616879  18.0500078
  66.0204124  38.5166240  18.8565588  65.9701490  37.1605372  18.1861186
  71.8654442   3.6408016  56.5035009  72.8203440   3.6392325  56.5698099
  71.5706301   3.1656092  57.2803593  78.3567619  31.1949897  22.4591851
  79.1538954  30.6895089  22.3001337  78.2334518  31.1556625  23.4075952
  31.4870214  64.7288418  22.8807902  32.4192834  64.5138884  22.9110241
  31.2824368  64.7767687  21.9469380   1.9420375  21.0015512  41.2484837
   1.6999158  21.7812276  41.7481947   2.4448687  21.3388228  40.5071068
  22.1183896  64.5526457  67.4202108  21.9833088  63.9492083  68.1508636
  22.9546833  64.2844391  67.0395422  86.4139271  57.2894669  63.6931849
  86.4357185  56.3607073  63.9237595  85.5844688  57.4015665  63.2287931
   2.6778895  33.6911058  14.3098712   2.9652706  34.4413161  13.7894583
   1.8366182  33.4422183  13.9270544  16.7595625  72.9842377  47.8812933
  16.5612495  72.1468544  48.3004522  17.6965809  72.9406977  47.6906776
   3.2272553  33.0161929  32.2053170   3.0074456  32.3860836  32.8915215
   3.2798374  32.4916315  31.4063787  35.1149893   1.3694499  67.4367619
  34.5876932   2.1486828  67.2607327  34.8763132   1.1150938  68.3281469
   1.5584949  64.9666977  31.4358902   1.6424984  64.1478729  30.9473157
   0.6155818  65.1268435  31.4746165  12.9476929  13.5576761   9.0925461
  12.3164189  14.1095150   8.6308122  13.6816406  13.4726477   8.4840053
  50.0468588   0.9056901  69.7057438  50.5794239   0.4256696  69.0715599
  49.6348476   1.6019824  69.1942263  53.0954361  50.4735279   5.2329135
  52.9230595  51.2028408   4.6374130  52.7591038  50.7701731   6.0785592
  50.4349804  29.3389726  19.8875391  50.6418180  29.8232412  19.0882063
  50.7978582  28.4657311  19.7392070  12.8400564  49.6889734  47.3045444
  12.2321272  50.3478622  46.9691086  13.1425214  49.2231989  46.5249300
  46.9116116   9.3905467  60.9150314  46.5560436  10.0798249  60.3540516
  46.6296244   8.5751277  60.5005360  58.9424801   5.2637202  62.2834253
  58.1067753   5.5963963  61.9560814  58.8443995   5.2650863  63.2355833
  42.9567528   9.0296894  45.2053356  42.5382662   9.8889720  45.2576256
  42.8129768   8.6403751  46.0678864  27.6868916  75.2142954  58.2813215
  27.0388937  75.9176970  58.2418966  28.5303497  75.6614971  58.2118607
  26.4984751  76.2332869  10.8064282  25.9644055  76.5256596  10.0678349
  26.1763740  76.7414618  11.5509009  17.5891161  66.7219639  50.3293324
  17.6885116  67.5628233  50.7757759  17.7339220  66.9230843  49.4047689
  42.1331549  27.1960449  55.8169842  41.8334198  27.7169490  55.0719690
  42.7185774  26.5433884  55.4328537  65.5532694   3.4159425   0.4264698
  65.2946806   2.7172911   1.0275100  65.6136322   2.9872978  -0.4272583
  49.2652035  78.0880308  10.3857791  49.7320414  78.3576584   9.5948327
  49.4851685  78.7574339  11.0336566  61.0403585  27.9564357   3.9246503
  61.9951725  27.9152584   3.8711667  60.7444143  27.1159530   3.5750180
  51.3044739   9.9330956   6.6516095  51.6110039   9.7008020   7.5281435
  50.6801319   9.2436159   6.4256704  26.0083485   9.9131858  41.7943048
  26.3891482  10.7781553  41.6424751  25.6422615   9.6605271  40.9467363
  65.0853109  61.9733620   9.5596975  65.4651546  61.6606665   8.7386155
  64.7872162  62.8613997   9.3628216  12.1950006  76.9089985  52.2495413
  12.7117693  76.1035013  52.2306967  12.1539783  77.1887016  51.3350391
  75.5286694  36.1835694  15.2060831  75.0810766  36.9336343  14.8145533
  74.8215723  35.6052279  15.4920316  14.7923338  58.1227970  53.0590439
  15.7203746  58.0953217  53.2918882  14.6876168  57.4273396  52.4097300
  65.8586645   5.2769327  26.8583488  66.0902023   6.0039061  26.2803102
  66.6993141   4.9414793  27.1698141  19.3323040   9.4187820   7.2861719
  18.4905863   8.9655286   7.3341817  19.8184192   9.1025120   8.0476820
  81.2895012   5.9594357  52.1850586  81.8064976   5.3663075  51.6399384
  80.5868530   6.2621558  51.6098499  41.9055271  65.3362751  29.3803692
  42.2853470  64.9037218  30.1451349  42.3210239  64.9079275  28.6319613
  12.8125596  55.0972319  53.8659048  13.5860312  54.9276543  53.3281183
  13.1254351  55.0183249  54.7670794  14.9768150  30.5801773  23.2590723
  14.4515669  31.2246704  23.7333870  14.4503260  30.3611922  22.4902487
  35.7730913  75.6234121  34.2647624  35.4142499  75.4393339  35.1328516
  35.1608014  75.2058077  33.6590075  12.4949157  17.7460456  39.4996810
  11.7719114  18.1359553  39.0082860  13.2794130  18.0003178  39.0137362
  69.3158340  14.9112439  66.3539934  68.3649111  14.9866641  66.2746572
  69.5295238  15.4011011  67.1481037  29.9542522  38.0345345  19.9754679
  29.0888762  37.7599525  19.6722186  29.7976398  38.8633966  20.4278970
  21.6969180   8.8489664  33.8505960  21.7528200   9.5087141  33.1593347
  21.2700200   9.3005008  34.5786786  52.1666050  10.4319251  66.7815304
  51.8658638  10.4179204  65.8729076  52.5023127  11.3192058  66.9090557
  25.1141739  46.6054535  58.7419510  25.9024215  46.7748117  59.2579079
  24.5969844  46.0091972  59.2834520  56.4242649  52.7987957   5.8630532
  57.0992804  52.8600264   5.1871526  56.1040735  53.6952257   5.9636784
  79.4986296  31.5003300  30.6851649  78.7941408  31.8313885  31.2422347
  79.1072464  31.4414907  29.8136210  32.7756906  78.8735723  27.8919101
  32.0610809  79.4599581  27.6434827  32.4402642  77.9960585  27.7083564
  63.5062313  56.8113899  18.2676566  63.9577341  57.2466087  18.9908195
  64.2097712  56.4454079  17.7316403  67.3143721  15.6770360  11.7387438
  67.0526791  15.5407798  10.8281493  68.2573271  15.5125856  11.7441285
  62.4692965  34.7881961   3.4438875  62.9207754  35.6293702   3.3744392
  62.0776176  34.7979760   4.3172273  13.6212099  26.2582588   8.7081146
  13.0016470  25.6494641   9.1102898  14.4159079  25.7406211   8.5787439
  21.0589814  71.5382385  57.3900270  20.3825331  71.9075727  57.9576874
  21.7292404  71.2175846  57.9934883  39.8576117  80.7095909  61.1923695
  39.9740052  80.2602959  60.3552198  40.2261496  81.5813828  61.0495853
   7.9500598  58.4260416  57.9048395   7.3409373  58.4885120  58.6405706
   8.3552521  59.2918301  57.8551865  83.7878036  69.0748596  48.7081146
  83.7331581  69.2100239  47.7620792  83.9353085  69.9499035  49.0669537
   9.5087206  41.1365747  12.6564467   8.7426293  40.8468819  12.1610546
  10.2397156  41.0381126  12.0463789  80.7632923  16.2151384   2.1834336
  81.4547062  15.9737265   2.7997971  80.0889111  15.5470490   2.3062995
   8.3716077  73.4504414  34.2701554   8.3088923  73.7582064  35.1743579
   8.2245344  72.5063658  34.3277383   6.5523607  79.4198084  63.2654858
   7.4790502  79.6590710  63.2502651   6.4526361  78.8985348  64.0620804
  64.6025896  55.3467607   2.6932496  63.9026356  55.3632259   2.0405453
  65.3626108  55.0069618   2.2208819  83.6897469  27.5245833  30.9167719
  82.8378677  27.9592490  30.8768559  84.2710114  28.0895853  30.4077101
   9.7984779   5.9695512  13.4507489  10.2764308   6.7970389  13.5060358
  10.4139555   5.3149474  13.7807691  79.4345236  73.5232639  68.4534740
  79.0488768  73.2953739  67.6075554  80.1269245  74.1488552  68.2402992
  77.5661469  21.2656045   2.0545322  77.9305363  21.1322331   1.1795112
  78.2686472  21.6937613   2.5438255  34.8425651  51.9606543  34.3123198
  34.0036368  51.5178394  34.1844869  35.4287601  51.5516090  33.6756968
  78.4069777  77.8565502  54.6147251  78.3554316  77.4122667  53.7684441
  78.1173372  77.1998405  55.2480316   0.4480749  23.2160258   0.4862356
  -0.4792354  23.4521747   0.5099222   0.7986759  23.6971188  -0.2633370
  10.9423757  25.1105833  44.8061180  11.1529660  25.3161216  43.8952732
  10.7912362  24.1653967  44.8095846  30.8460712  48.2655382  41.3036251
  30.2411366  47.6839399  41.7640924  30.3396535  49.0625906  41.1471653
  22.9402566  67.2042894  46.6429424  22.0931959  67.4149895  46.2501001
  22.7242947  66.6607809  47.4006939  64.4089460  70.0944185  69.6115923
  64.7628546  69.4126415  69.0404892  64.4903898  70.9002638  69.1014862
   2.9219478  12.3542964  15.9687698   2.8315559  12.3891890  15.0164866
   3.3299908  13.1883466  16.2013471  38.7695241   5.8365744  55.8900309
  38.2927179   6.6428244  55.6929350  38.3306789   5.1650357  55.3678417
  54.7546339  23.4132075  45.8761454  54.9049997  24.2574167  46.3015032
  55.6279325  23.0321026  45.7848263  42.8943157  22.0343876  65.1654625
  43.8500929  22.0054650  65.1221180  42.7011538  22.1933889  66.0893869
  73.2934809   8.1037551  32.3471522  73.6300373   8.6049336  31.6043329
  72.3495722   8.0556184  32.1956444  36.0975647  28.8354874  28.2349110
  35.9212637  27.8974652  28.1623673  35.7874918  29.0705395  29.1094613
  23.4097600  23.9925385  34.3106961  22.9555202  23.1606293  34.1771865
  23.7567282  24.2172241  33.4473538  85.3253078  60.4306364  21.9917202
  85.1128006  60.1300716  22.8753114  86.2818718  60.4197693  21.9586205
  72.6013041  49.4657850   2.0262009  71.8471098  49.9872828   2.3008963
  72.3701191  49.1524029   1.1518001  64.9805832  31.9447303  21.2115526
  65.8694553  32.2263288  20.9951138  64.5307779  32.7491283  21.4701033
  31.8868446  35.9310484  14.6490061  32.5558162  35.2467680  14.6706796
  32.2278762  36.5799952  14.0335429  13.9850140  21.9950986   8.2862145
  14.7456610  21.8242335   7.7308291  13.2344902  21.9038844   7.6991665
  69.2506027  25.5989432   4.3805382  69.9928522  25.3411055   3.8338989
  69.3154478  26.5521908   4.4383630  45.5269861   6.2318736  38.4074569
  44.9104309   6.9106227  38.1328845  44.9801826   5.5661958  38.8247204
   4.1835466  15.1481128  25.3965068   4.2882806  15.6265509  24.5740962
   4.6432921  14.3209696  25.2526307  14.9500847  23.3387351  15.6226814
  15.1127183  22.5427556  16.1288393  15.7377076  23.8678694  15.7487786
  48.2108230  81.6718597  61.0496378  49.0695304  82.0608422  61.2156200
  48.1428641  80.9606742  61.6866875   3.2041180  60.5931425  14.1097999
   2.5907350  60.5032635  13.3804750   3.2316542  59.7232199  14.5081902
  21.6047978  48.6802673  32.5356364  21.0089135  49.3598890  32.2205663
  22.2922087  48.6374760  31.8709064   4.3135250  65.0951529  58.9954472
   3.9399359  65.6526995  59.6779442   4.4055206  65.6729555  58.2378769
  10.0313950  43.7197208  10.3057754   9.7384220  43.0514908  10.9253442
  10.2070749  43.2369471   9.4981247  30.9592557  73.1218481  64.3829918
  30.4436398  72.3289108  64.2359304  31.0637927  73.5045624  63.5118866
   0.5917225  26.8855929  33.6712527  -0.2094225  26.6466618  33.2050872
   1.2973976  26.6652942  33.0632067  57.3776484  27.0540166   6.5579164
  57.6968336  27.3067737   5.6916225  58.0687666  26.4958668   6.9143558
  16.1991513  52.9849863  22.2233462  15.5011451  52.3377609  22.1227598
  15.9720922  53.6800766  21.6056705  83.3491516  51.8194199   3.2689524
  82.4373150  52.0759296   3.4067345  83.4896278  51.9301081   2.3286086
  12.7627897  70.9228182   7.7060634  13.4384263  70.5840302   8.2934028
  12.0435715  70.2956867   7.7813238  83.6039352  39.0545726  17.1300328
  83.5269356  39.2710876  16.2008262  83.8318348  38.1249666  17.1412694
  78.8005114  20.6370878  68.6227798  79.2077351  19.8716450  68.2172012
  78.3641195  21.0875726  67.8996897  32.9558158  77.2022390  34.4724250
  33.6430478  77.8499031  34.6288657  32.7308297  76.8764830  35.3439164
  50.1708889  58.4112120  10.6353593  49.2260027  58.2595682  10.6560099
  50.2951670  59.2169809  11.1368775  31.2716436  62.1718121  18.3034348
  32.1631622  61.8506813  18.4387100  30.7775450  61.8274164  19.0474033
   8.9619952  71.1510420  11.5142977   8.2937580  70.9946966  12.1815658
   8.4730893  71.2014961  10.6929219  13.1394541  47.2316122  70.2904701
  14.0322411  47.4076653  69.9935389  12.7061021  46.8442631  69.5299482
  48.6351585  28.0669618  58.5333014  48.0953789  27.7283406  57.8190136
  49.1645718  28.7540340  58.1284761  46.9480419  72.5725985  56.1225271
  46.4931726  73.3242941  56.5023756  47.8001213  72.9178524  55.8560944
   8.8969898  25.6648397  26.1042094   8.1847101  25.2585864  26.5980196
   9.2042822  26.3751101  26.6675210  80.1246643  59.1589403  12.8951037
  79.5771599  59.9083185  13.1294155  81.0073376  59.5214748  12.8196847
  82.7834415  54.0839291  55.4749918  82.7925587  53.1518936  55.6928539
  83.4192848  54.4760275  56.0734844  28.2232046  36.0550594   2.2640446
  28.3735514  35.1310182   2.0646086  28.9543104  36.5118980   1.8480945
   7.2914737  71.4475107  64.7786474   6.6351724  70.7919216  65.0146627
   8.1231946  70.9745312  64.8062658  23.3247852  64.0006495   1.6438878
  23.0509233  63.3336592   2.2734556  23.5915041  64.7445965   2.1839221
  23.3724165   3.7339619  63.8166285  23.9432144   4.4053680  64.1903114
  22.8426075   4.2020661  63.1713295  35.0778580  52.1772814  11.0612047
  34.4520402  51.4892054  11.2873292  35.9343910  51.7925262  11.2470818
  71.2541056  71.2378502  46.2508631  70.3835773  71.3005972  46.6439009
  71.7731333  70.7551813  46.8941879  72.2418213  30.5774546  56.2615538
  71.7984533  30.9750342  55.5121613  72.1420193  31.2176108  56.9661570
  30.4870248  14.2270029  69.2656469  30.1936626  15.0467885  69.6632910
  31.0290027  13.8149333  69.9384689  41.7597485   8.3659190  59.9693155
  42.3069191   9.1292071  59.7843122  41.3023281   8.1939691  59.1462517
  25.3852224  41.7636347  34.5675087  24.6192074  42.3203707  34.4278765
  25.5893469  41.8658400  35.4970908   3.5325959  34.1021585   3.4921265
   3.1157023  34.9630857   3.4569815   3.9615014  34.0088320   2.6415020
  10.9806716  69.4392061  11.6342282  10.5336857  68.6330128  11.3763666
  10.3239000  70.1254702  11.5162194  75.3356075  26.8814516  53.8148212
  75.1868868  27.8138041  53.9724112  74.7766685  26.4384890  54.4532633
  70.6333303  43.8570738  31.6691518  70.2887487  44.1931629  30.8417821
  71.1051893  43.0604982  31.4261436   5.9380686  44.8116922   4.9553439
   5.9692800  45.0677061   4.0335438   6.5774918  45.3807592   5.3837514
  29.8404670  43.9223051  65.8955288  30.7256413  44.2541981  66.0456800
  29.4021654  44.6205568  65.4091454  15.1210153  43.0627918  45.5584240
  14.7052169  43.2907343  46.3899231  15.5251408  43.8780451  45.2613068
  44.1838884  40.4762745  23.0979323  44.7243595  40.3542233  22.3174047
  44.8104763  40.5056000  23.8209510  83.9826202  39.9762678  61.9591951
  84.2741299  40.5951834  61.2897205  83.1686497  39.6124578  61.6108751
  67.4148655  28.6491895  22.7954698  67.7797937  29.5334458  22.8293800
  67.2261906  28.4327698  23.7085938  18.9067054  74.2420483  16.6406441
  19.1437101  74.7792292  17.3966169  18.8756061  74.8585320  15.9090626
   2.6422065  11.3129592  32.4884510   2.8369799  10.7747412  31.7212367
   3.2278967  10.9809566  33.1688714  67.9225254  32.5400424  42.6441097
  67.5382233  32.9964566  41.8956232  68.1301165  33.2356644  43.2680035
  68.3627844   4.9735910  15.9142387  68.9952755   5.0223261  16.6310430
  68.5600138   5.7349205  15.3686094  19.2236900  39.5224571  18.4560561
  18.9471865  39.9284339  19.2776155  18.9303827  38.6140800  18.5271621
   1.9680478  49.5140839  65.7154417   1.4731416  48.9788103  66.3357496
   1.3909517  49.5960951  64.9561882  40.7234430  60.5876207   7.1793306
  40.0533152  61.2674475   7.2500032  41.5508699  61.0683489   7.1568352
  70.8211470  13.0165780  69.8380470  70.7979727  12.0715296  69.6877813
  71.6564655  13.2980239  69.4648647  84.9788380  44.1004705  48.5468292
  84.0498543  44.3298388  48.5717773  85.3906441  44.7012711  49.1678667
   6.3788503  18.1049943  55.4910231   6.9466227  18.7802899  55.8622932
   5.5131996  18.2942879  55.8530283  48.8544798  47.2126436  70.0286913
  48.3092880  47.1436930  70.8124304  48.7228966  48.1103325  69.7236109
  37.9864454  41.1874723   0.9970853  38.4626913  41.8458223   0.4911227
  37.7960134  41.6176558   1.8306997  82.6154709  39.8063326  28.8091397
  83.4055901  40.2038050  28.4431291  82.0404243  40.5475855  28.9991283
  20.8620691  13.4809613  62.6408482  21.3575554  14.2904878  62.5167799
  20.4835892  13.5635650  63.5161543  82.7483082  21.2355852  46.6417789
  83.6041355  21.1777163  47.0665646  82.1393013  20.8605933  47.2779608
   8.1149650  14.2302263  41.2773943   7.7083176  13.3952379  41.5090513
   8.6502582  14.4552207  42.0383596  63.3974171  22.5608492  47.6035452
  62.5426388  22.9477000  47.7931118  63.4195375  22.4845195  46.6496515
   0.0480779  78.2028484  61.5758181   0.6752809  77.5172615  61.8056345
  -0.2105872  78.5821533  62.4157286  38.7365270  68.5485411  67.7075624
  38.8566804  69.2685223  68.3267736  37.9247379  68.7614775  67.2472525
  19.8609853  72.1101284   1.1821021  19.4822848  71.2765551   1.4613381
  20.6963325  72.1612740   1.6466573  67.3410845  14.3058860  41.1754942
  66.8298149  14.2230475  41.9804621  66.7087889  14.5986903  40.5192184
  59.2566490  10.9633732  45.5561209  58.5456371  11.1698115  44.9494267
  58.9009380  11.1686802  46.4207363  67.5856304   9.3099028  41.5514517
  67.0585346   8.5462892  41.7866087  67.2240067   9.6020830  40.7147360
   1.4005771  56.7784023  57.1820211   1.1007688  56.0465431  56.6428280
   2.3548591  56.7038345  57.1778154  46.7465401  21.7696190   3.8350093
  46.2969828  21.6890121   4.6762198  46.5532303  20.9496355   3.3805940
  41.7027712  23.9700937  47.6262283  42.1057272  23.7563467  48.4677601
  42.4220419  23.9199686  46.9966507  77.8332853  56.4334822  46.4099026
  78.4608316  56.9246340  46.9401789  76.9982958  56.8790770  46.5529966
  72.9124689   1.0947300  29.6440482  72.2473240   1.7039004  29.9645543
  72.6175547   0.2363701  29.9481440  10.6828427  57.7445364  20.8757663
  10.3779697  57.7716112  19.9688196   9.8899442  57.5945997  21.3906097
  78.7222385  51.7941284  47.5794029  79.1387701  51.2106133  46.9451761
  79.2856836  52.5676727  47.5992393  62.0352554  70.8561707  66.6396332
  62.8016853  71.2643528  66.2368822  62.0424223  69.9570799  66.3112879
  59.7389078  45.3276539  67.7717543  60.3961658  44.7025442  68.0775023
  60.0166941  46.1664772  68.1397724  85.1781750  56.3442659  53.9574814
  85.4745388  55.7236528  54.6232462  84.6396065  56.9725561  54.4385433
  19.2295492  58.0372858  50.8767128  18.5768330  57.4163818  50.5531788
  19.4666660  58.5573483  50.1089001  81.4145851  44.7923231  57.0027828
  81.5686703  45.7221317  56.8356085  81.8037891  44.6359587  57.8631878
  85.6340694  37.4081540  58.5423040  85.8688164  37.2810507  57.6230812
  84.8687649  36.8484354  58.6736679  75.3684711  44.2198801  39.0075374
  75.7700396  44.3284082  39.8696256  76.1092281  44.1495180  38.4054065
   5.6707519  56.6648293  53.8185167   5.1177692  57.0178032  53.1214857
   6.4982980  57.1377230  53.7303734  82.5283146  60.3914309  12.1772540
  82.7858639  59.7164488  11.5493226  83.2465935  61.0238075  12.1572030
  66.4900923  63.5957623  40.8959484  65.9699059  64.1715097  40.3354549
  66.0813236  63.6679077  41.7584658  77.2559214  40.4443693  53.5625124
  76.5896797  40.1675463  52.9334497  77.4250984  39.6644282  54.0910053
  23.0536532  50.4160404  34.1166782  23.0274963  51.1493015  33.5019588
  22.5540924  49.7232771  33.6845303  76.5717697  17.8036249   7.4211520
  77.0359516  17.8153729   8.2581890  75.6460619  17.7626181   7.6611835
   2.8411165  48.7546492  43.7477064   3.3696705  48.0269241  43.4201670
   3.2596275  49.0026188  44.5720768  82.5660324  79.2378139  68.4953022
  82.0986462  80.0250340  68.2158947  83.3277702  79.1937017  67.9173374
   9.4213140  45.2470875  60.0036764   9.2947680  46.1942673  59.9482679
   8.7968493  44.9605989  60.6701612  61.1172819  24.5831633  14.1402555
  60.7423067  24.5390201  15.0198448  60.5162907  25.1455545  13.6516273
  42.3848057  31.6035843   2.4431084  42.8709602  31.1833239   1.7336947
  42.8704977  31.3737559   3.2352677  42.5172806  38.5190845  16.9344747
  42.1216202  39.2672944  16.4874077  41.7986441  37.8956413  17.0398903
  78.4021235  50.1298523  61.8138599  78.2702112  49.6383572  61.0031414
  79.0698433  49.6345615  62.2882700  18.9626312  25.8924818  60.7888031
  18.6665487  25.2982497  60.0992727  18.9127696  26.7625403  60.3928947
  21.7239738  39.5881009   9.7026640  20.9543014  40.0799799   9.4165009
  21.7005062  39.6411395  10.6581056  49.2929029  22.0264912   0.7017151
  49.7643471  22.5941706   1.3113968  49.6583557  22.2409439  -0.1565886
  55.8182341   0.1951885   0.6471168  56.1101323  -0.2673531   1.4326665
  56.4489943   0.9071731   0.5401078  75.7959795   1.8703642   4.5120651
  75.7050133   2.5145084   3.8099003  74.9014378   1.5772054   4.6855232
  81.3876534  59.3329477  17.6245344  82.1760464  59.4846487  18.1457400
  81.6037369  59.6767664  16.7577422  41.9841290  16.6394103  46.1477375
  41.7487717  15.9773552  45.4977226  42.7475929  17.0802951  45.7749510
  86.3303089  26.6065025  28.7762165  86.6316891  26.3987970  29.6606684
  86.1108589  25.7575250  28.3924055  15.1755321  28.8661695  54.5377111
  15.2368939  29.8086405  54.6933174  14.3815243  28.5982323  55.0003052
  77.2061825   6.1166996  33.8207793  77.4144697   5.1858997  33.9011526
  76.3214159   6.1958116  34.1773796  24.1438770  11.1880100  35.4857802
  24.6623802  10.9493756  34.7173786  23.6993456  11.9971299  35.2328992
  79.3998289  78.6929369  43.2457685  78.9854860  79.2110777  42.5557756
  78.7286854  78.0627584  43.5078287  68.8910770  50.4796076  49.6025515
  69.6089554  49.9512482  49.9514389  69.2573643  51.3606310  49.5259905
  82.1953583  76.0163498  18.5145009  82.9338932  76.3486195  19.0247810
  82.2194195  76.5212202  17.7016306  85.1978741  17.7845289  70.2494842
  84.8398934  17.8835346  71.1316852  84.6495138  18.3482601  69.7038297
  71.2651587  18.7616956  13.0773604  70.7840109  17.9779136  13.3427203
  70.6951523  19.1872799  12.4368918   2.5785795  51.1217356  58.7549353
   2.3835337  50.2161837  58.5137653   2.0584065  51.2769794  59.5433235
  32.1717858  16.4039493   5.9675097  31.3777161  15.9664297   5.6604910
  32.3640633  15.9889340   6.8083572  75.1685047  80.2895069  24.1126490
  74.7711134  80.9299469  23.5226107  74.5867872  80.2706909  24.8725700
  75.2233267  24.5240331  49.1364384  75.1993942  24.6491718  50.0851202
  75.2177191  25.4114008  48.7775803  81.3265324  42.1880770  44.3794394
  82.0403862  42.0731783  45.0066853  80.6320095  41.6120052  44.6988344
  29.7100163  19.4290185  51.2406445  29.4414377  20.2941799  51.5498257
  28.9102769  19.0437090  50.8826113  51.9779921  24.1394949  64.9964571
  51.3872051  24.0347147  65.7422638  51.6493177  24.9123931  64.5372915
   5.5613482  73.5675144  12.4934030   5.2788484  73.8976192  11.6404927
   4.8806399  73.8583899  13.1002450  77.9833126  67.8824329  25.2882743
  78.1240797  68.7572002  24.9260497  78.6685514  67.3453665  24.8904824
  19.4978368  68.8953829   1.5245253  18.6443472  68.7574053   1.9353174
  20.0485492  69.2413616   2.2268397  48.2213974  56.4170313  26.7993522
  47.6743937  55.9722042  27.4467707  48.6787415  55.7092524  26.3453531
   0.1740257  58.6952734  39.7998405   0.7485755  59.1890335  40.3849268
  -0.6697049  59.1435385  39.8582411  44.3599081  79.0293312   9.5595968
  44.3767118  79.9847555   9.6154416  45.2638817  78.7850809   9.3610805
  82.5769806  36.4484024  10.2173769  82.6271343  37.3072624  10.6369901
  83.4215832  36.3464928   9.7786498  77.0405865  26.4031196  57.9231787
  76.5493631  27.2239900  57.8900099  76.6109324  25.8945012  58.6108828
  81.9528580  41.2918282  64.2745113  81.8088818  42.0715427  63.7382793
  81.0951900  41.1003971  64.6539688  73.9218664  21.9240808   4.3948600
  73.8986206  21.0026789   4.6531442  73.0055141  22.2003078   4.4101807
  79.4124508  42.1255541  50.2675390  80.0186539  41.7536354  49.6268940
  79.3370056  41.4530039  50.9444571  26.4268827  23.3647799  42.0012474
  26.9842577  24.1335440  42.1219349  26.0557866  23.1995487  42.8679752
  50.7464743  36.0799909   6.5864420  49.9735117  35.9300256   6.0421401
  50.5856133  35.5659485   7.3777163  64.6840000  40.7774496  46.9272757
  64.1148233  40.4547596  46.2286091  64.8827648  40.0017881  47.4517441
  85.0785923  22.9374433  40.8234692  85.6034756  22.9621315  40.0233984
  84.2846012  23.4250116  40.6041670  33.0205459  81.1815207  13.9467323
  33.9651269  81.0274588  13.9306068  32.9120273  81.9449024  14.5139217
   7.9290104  44.2456341  67.6262808   8.2833689  45.1230001  67.4817514
   7.7390200  43.9163542  66.7478085  61.8804312  54.4086504  68.1194687
  62.5311136  54.0608549  67.5096464  62.3963022  54.7633934  68.8435316
   0.8650905  36.4090014  62.6818562   0.1387331  36.7608976  63.1964493
   0.8454902  36.9096899  61.8662834  55.9201956  56.6658783  55.5221701
  56.0754347  57.3052073  56.2174320  56.1884785  55.8291817  55.9019041
  10.3868067  46.6551542  46.3612318  10.0150394  46.5899849  47.2408724
  10.1956034  45.8087873  45.9570885  60.5488873  21.5801311  53.3833408
  60.2374887  21.1220026  54.1639709  61.4846516  21.3820553  53.3466959
   4.9169260  54.5296192  35.0602698   4.7563937  54.1369867  34.2021918
   5.8698589  54.5267057  35.1505065  11.1148572  71.5229750   4.2896712
  11.0944855  72.2275162   4.9373096  11.5815926  70.8101273   4.7258380
  75.9570837  47.0158577  53.4625196  75.3037834  47.4685240  52.9291105
  75.7019043  47.2051144  54.3654585  77.0381260  36.1708665  49.7774553
  77.5938082  36.7144704  50.3359747  77.3971844  36.2860298  48.8976574
  38.0750799  16.0833478  17.9684556  37.7939343  16.6145158  17.2234404
  38.7694812  15.5261731  17.6168919  69.5900965  19.3932104  36.2776613
  69.9330187  20.0171900  36.9174147  70.3625917  19.0909350  35.8000493
  78.8322592  27.0623565  47.9627848  79.6977091  26.7307091  47.7235508
  79.0111065  27.7962255  48.5507345  72.3937988  31.8333864  58.7197733
  72.9690981  32.5425529  59.0067339  72.3282433  31.2556148  59.4801140
  47.3955393  31.8360615  62.0119572  47.0468283  32.0268369  61.1411905
  46.6399479  31.5229511  62.5092316  78.7810373   1.3682467   5.0913936
  78.6108303   0.6577316   5.7098031  77.9206038   1.7541973   4.9272865
  31.4925551  20.7554626  11.0721648  32.1510339  21.0468102  11.7028415
  30.7864618  21.3970923  11.1494625  10.9921801  40.0946045   3.5921749
  11.9302320  40.2828360   3.5628822  10.6863952  40.2617741   2.7006695
  66.7968702  24.2637205  68.6671257  67.0443296  25.0321245  69.1814709
  65.8404255  24.2910361  68.6407423  66.2737036  11.3857675  14.8807991
  66.5309238  11.7368257  15.7333410  65.3169823  11.3703406  14.9068892
   9.1153961  62.4469137  10.6211913   9.6218872  62.2927856  11.4186525
   8.2082182  62.5047302  10.9210527  11.4365005  48.2446623  44.4744205
  11.0614312  48.3731127  43.6031818  10.7161701  47.8896856  44.9953318
  82.9790401  52.0233107   6.5978104  82.3721981  51.4613152   6.1160105
  83.2800388  52.6610899   5.9506047   1.7839521  22.2918892  67.8378201
   2.3212644  21.7902899  68.4509468   2.2960240  23.0809641  67.6606894
  64.4011402   3.1186712  11.8656504  63.4961891   2.9775852  12.1438384
  64.9137688   3.0423149  12.6703954  62.6125956  33.3573890  56.9861603
  62.7794790  34.0263820  57.6501083  62.1148062  32.6818347  57.4466705
  10.1350355   8.7760514   4.1508919  11.0676157   8.8482243   4.3541616
  10.0964952   8.1614733   3.4180617  61.1855316  28.6804867  59.4041204
  61.6303635  29.5255971  59.4685316  60.6560421  28.6272693  60.1997566
  77.5065041  10.7581770   7.8985870  77.0562792   9.9151319   7.9515266
  76.8944168  11.3815641   8.2897061  68.5634804  23.6344886  44.4900751
  69.5129013  23.6434674  44.6115112  68.4055948  22.9052854  43.8904381
   3.2037538  12.7876818  47.4808979   2.7676615  13.0662525  46.6756296
   3.3881468  11.8584001  47.3442650  12.4847925  -0.0818406  68.7946510
  13.0097377  -0.0795245  69.5950651  13.0702949   0.2682791  68.1232119
  82.6564598   7.4541306  42.6673698  83.6102104   7.5352490  42.6634312
  82.4535465   6.9746637  41.8641472  60.5022526  80.0091076  25.0799394
  60.5882072  80.0247478  24.1267347  60.4866266  79.0785789  25.3037763
  80.1430416   9.5239443  55.9107542  80.5337334   9.1211301  55.1352978
  79.2168474   9.2870945  55.8628035  54.0183353  75.6937027   4.2757285
  54.9048948  76.0410357   4.3737283  53.4535885  76.4658499   4.3086636
  45.6803322  59.0975809  23.6243224  45.3791428  59.0784693  22.7159429
  45.7641745  60.0288057  23.8293171  17.8408217  17.2851849  66.7430735
  18.1578207  16.4204383  66.4823914  17.2553968  17.1133590  67.4806309
  36.2804389  34.8614860  51.3347626  36.5245461  34.1320276  51.9044399
  35.3745079  34.6782494  51.0858822  39.9539661  17.5189817  64.0676785
  39.1512537  17.2420728  64.5095062  39.6946645  18.2874632  63.5593224
  27.9568863  47.6551056  48.7110806  27.4426508  46.9472408  49.0993118
  28.3428288  48.1093693  49.4600296  75.6806231  20.7899928  68.1381702
  75.1096392  20.8382273  67.3714352  76.2434959  20.0341582  67.9704618
  13.1833017  48.1620598  24.9395156  14.0011072  48.6386156  24.7969699
  12.6370752  48.3936644  24.1883659   5.2206278  40.2897549  58.0269766
   5.0610441  40.4738951  57.1013069   6.1719096  40.2075195  58.0942869
  65.6913519  47.8391647  62.5944042  66.2228632  47.8482294  63.3904219
  65.2362013  46.9974899  62.6198864  72.0281458  56.0844278  52.0043421
  72.6567602  55.8776999  51.3127184  72.2019243  57.0007086  52.2198915
  30.5582285  35.1261425  39.3748546  31.4098716  35.3641891  39.7412848
  30.7052064  34.2762733  38.9597034  83.9100838  42.3958206  57.4170971
  82.9959202  42.4113607  57.1337318  84.3070984  41.6901064  56.9066334
  21.3517904  30.4810691  47.7310133  21.6570091  30.9695339  48.4955263
  20.7489395  31.0793400  47.2895622  74.8529673  35.9190154  47.6428080
  75.1692343  36.5779400  48.2608938  74.2523623  35.3782439  48.1557131
  57.7386141   8.6151135  40.2854490  58.4769773   9.1151559  39.9375916
  57.4301577   8.0956191  39.5430088   1.9661358  47.9802942  61.7589903
   1.4887393  48.7285233  62.1174192   1.3148563  47.2803164  61.7131329
  14.5776200  67.6691818   9.1327727  14.9662459  68.4908009   9.4330090
  13.8089085  67.5499296   9.6905303  37.1220970  11.3869238  67.0959330
  36.5513110  10.6632411  67.3542356  37.6977205  11.0118294  66.4294577
  82.4978447  29.5843387  58.8977242  83.0059338  28.8606453  58.5311937
  81.5887165  29.2894650  58.8451719   3.1177017  35.2491069  67.2029257
   3.3901417  34.8938060  66.3568974   2.1695009  35.1196957  67.2229195
  39.6561146   9.5399523  49.9790096  40.0690079  10.2613699  50.4536772
  40.3362274   8.8685834  49.9247837  81.1800289  41.0486937  48.6550283
  81.4534187  40.8073235  49.5400333  81.6604424  40.4491568  48.0840635
  53.2588673  26.0533333  54.1378117  52.5546598  25.7326603  53.5743427
  53.2183456  25.4940915  54.9135923   1.4952993  58.4241486  65.7611990
   2.4212295  58.5519886  65.5549431   1.0806460  58.2658148  64.9131298
  11.8447661  59.3547678  27.9348040  11.2945998  59.3848801  28.7175202
  12.7366829  59.2711782  28.2720399  70.1887226   6.9811755  52.6746321
  70.6628323   7.7094901  53.0759001  69.9230671   6.4326674  53.4127378
  59.8182154  51.8512917  65.3614187  60.7140207  51.5279198  65.2655125
  59.9017477  52.6273060  65.9155464  13.5891759  43.5930061  30.6366563
  14.3575871  44.0737057  30.9443974  13.0740869  44.2443037  30.1604915
   5.3714168  39.4874215  48.2353497   5.0533903  39.3662357  47.3406982
   5.8140910  40.3359604  48.2193089  68.3817482  34.7227573  60.8952045
  68.4225512  34.1467214  60.1318264  67.8613234  34.2364621  61.5346670
  26.7842937  39.4379783  57.3284101  26.8558836  39.3703961  56.3762856
  25.9054494  39.1142750  57.5260973  77.7121639  26.4967752  30.5685472
  77.8408670  25.7243514  30.0180674  78.5977888  26.8093085  30.7535386
  85.4524994  17.6309192  35.3199577  84.5406342  17.7972198  35.0810766
  85.7686234  18.4693360  35.6566405  13.2452798  78.2411051  38.8666582
  12.9945385  78.3036423  39.7883153  13.0659831  79.1111326  38.5100985
  12.0514524  49.3252087  65.5478382  12.5148666  50.1364183  65.3394651
  12.0932615  48.8115168  64.7412348  21.1931849  45.2744102  54.1942263
  21.8338704  45.1681566  54.8974085  21.6760802  45.7145596  53.4947205
  42.1114016  79.3494034   2.8815779  42.9864311  79.7372961   2.8720465
  42.1929789  78.5611391   2.3447195  47.0947886  30.3913808   3.1848302
  46.1961985  30.7210827   3.1768161  47.4813795  30.7688570   3.9749521
  28.7508607  61.8404436  43.5952950  28.0354452  61.6248608  44.1935778
  29.2945409  62.4578094  44.0846825  13.1930184  47.2495031  32.6996255
  12.2661507  47.3226213  32.4720287  13.6503077  47.2975111  31.8600941
  20.6450248  42.3718214  48.0934668  20.7616711  42.4959850  49.0353823
  19.7358239  42.6223135  47.9296446  78.7573195  23.5464883  54.0249729
  78.1952095  22.8450751  54.3540382  78.3001995  24.3524194  54.2652845
   5.6427747  57.1743298  45.1906252   6.0028601  57.3271990  44.3170071
   6.1112291  57.7903414  45.7539272  23.0577636  42.3915005  51.8499470
  23.8070083  42.6403761  52.3911715  22.4009085  42.0865726  52.4758816
  20.8687353  59.7817278  23.2708836  20.7943463  60.6658220  23.6301470
  21.4248991  59.8830891  22.4984598   4.5974278  46.3479996  43.0826616
   4.3832368  45.6256294  42.4922991   5.1667666  45.9556150  43.7445641
   1.0672697  37.6766920  60.3687954   0.3463362  37.6829457  59.7391510
   1.7815138  38.1286955  59.9195910  24.6309304  22.2197747  63.3696795
  24.7018027  21.9275475  64.2784214  24.1601181  23.0515647  63.4215927
  19.5408928  13.8897097  32.5310540  18.6054015  14.0921628  32.5210547
  19.9656844  14.7289288  32.7085280  68.9249516   5.7254058  54.8051834
  68.0182362   5.9537226  55.0100613  68.9549065   4.7717246  54.8815203
  78.0345249   7.7438182  20.9013605  77.4510002   8.4147328  21.2557650
  78.5956049   8.2153404  20.2856565  32.5385314  80.7158063   0.3968518
  32.4873236  81.4478920  -0.2176864  31.7454907  80.2066110   0.2294056
  32.7315044  20.5278778  30.3259349  32.7604508  21.3575721  30.8023810
  32.3689485  20.7557940  29.4698739  29.7681141  32.9220581  60.2198935
  28.9232635  33.3410287  60.0558233  29.5485020  32.1127605  60.6814575
  86.3459682  17.1177578  59.3522596  86.8140697  16.7063415  60.0787878
  86.0758400  16.3865840  58.7966967  37.2251081  77.4408817  13.1340182
  36.4516234  76.9865465  13.4679830  36.9874287  78.3677912  13.1580389
  18.3460820  33.5692716  16.9193649  19.2498720  33.8619637  16.8022096
  18.4214067  32.7476144  17.4045825  11.3541603  34.2857194  41.2188244
  11.2442923  34.9698305  41.8792439  11.9984424  33.6879635  41.5980625
  84.3236637  23.5940528  48.2383013  83.6667156  24.2881441  48.2920599
  84.2586708  23.1372809  49.0769720  71.8002272  53.6375713  69.4080400
  71.7187119  53.9062262  68.4929371  72.7439833  53.5864258  69.5594883
  81.6899586  40.2544212  35.6796575  81.9896984  40.0770807  36.5712500
  81.0060883  39.6032715  35.5229163  83.9552784  66.4278173  51.5356016
  84.6466541  66.9019842  51.0736465  84.0017700  66.7525959  52.4348164
  24.1012406  59.3794250  60.8707762  23.1455016  59.3342972  60.8432484
  24.3889880  58.4892559  60.6682158   4.8904899  15.6343973  69.1276312
   4.6215463  15.8100152  70.0293303   4.1953957  16.0162759  68.5916805
  29.9145222  28.9831257  54.5543861  29.6933770  29.8998594  54.3903065
  30.7704353  28.8657475  54.1422319   9.5990622  27.4783134  50.6724882
   8.8442510  26.9167376  50.8489132  10.1245236  27.4311996  51.4711761
  -0.1998011  39.4037366  50.7170630  -0.3562705  40.2862597  50.3810596
   0.6529649  39.4593263  51.1482668  31.8283558  79.8535299  47.6745033
  31.2553358  80.5531406  47.9882383  32.7022719  80.2440071  47.6691723
  78.7579727  48.4922218  30.8800459  77.8587341  48.3313227  31.1658978
  79.2695951  48.4949875  31.6890359  67.9853392  44.2663670  41.0287571
  68.5461378  44.0626764  41.7772532  68.3428669  43.7423182  40.3119755
  33.1143355  48.6671638  37.2173500  34.0368342  48.4427977  37.3393726
  33.0452538  49.5714474  37.5235057   1.7953253  15.6588376  56.5830183
   2.2806007  15.2938533  55.8430719   2.0541222  15.1181400  57.3292780
  54.2683649  57.0241547  44.6393824  53.4879732  56.4845991  44.7662640
  53.9397812  57.8311014  44.2430305  84.9651146   9.0993857   5.7665497
  85.4563618   9.7501683   5.2651620  84.0515137   9.2496097   5.5236614
  15.4163885   3.5641941  55.8947325  16.0230947   4.3045568  55.8961487
  15.2151585   3.4212026  54.9699116  46.9884300  34.7448874  47.4533987
  46.6827822  35.2517152  46.7011118  47.5153303  35.3626776  47.9602909
  29.6310925  23.1424427   8.9386249  29.4629741  23.2147431   9.8781675
  30.5824256  23.0609584   8.8711107  38.6297393  47.2101307  38.1930709
  39.2307806  46.9554758  37.4929738  38.3769083  46.3835001  38.6041594
   9.5455700  62.7555656  47.3877478   9.5322591  61.9846249  46.8205595
   9.6384943  63.4940958  46.7859411  42.5697899   2.1402672  58.1040716
  43.1545782   1.4384054  58.3898115  42.1629095   1.8029903  57.3059988
  83.6821079  57.1511650  22.8790188  83.7091255  57.6490974  23.6960649
  84.6014786  57.0311642  22.6411414  29.9931836  58.1514835  29.1896915
  29.2541718  58.5857821  29.6156931  30.2703834  57.4818945  29.8150229
  76.1453819  67.4215364  63.5358286  76.9381094  67.8895807  63.2736254
  76.3808584  66.9942284  64.3593502  24.4407296  33.2711267  12.7794945
  23.7687087  33.6268806  12.1980643  24.5737624  32.3746443  12.4715137
  41.8921614  12.5545275  27.1042061  42.1273804  11.7616117  26.6223502
  40.9959078  12.7457559  26.8278122  15.7300293  75.4425240  50.0148678
  15.5716383  76.0833406  50.7080460  16.5504599  75.0173807  50.2646255
   0.1319582  50.4706669  28.2511258   0.1641965  51.3588238  28.6066198
  -0.1701677  49.9310684  28.9817309  51.4768267   2.9427379  47.9478455
  51.4072704   2.0049731  47.7689838  52.1168900   3.2611439  47.3113155
   9.8914027  40.3152752  54.0408516  10.6640375  40.5518007  54.5540047
   9.5827085  41.1448431  53.6765003   6.9099319  41.1303091  45.2512741
   7.2988677  41.6394424  44.5401144   7.1603590  40.2258205  45.0630713
  27.2811317  54.2022610  11.4780927  26.5832138  53.8382578  10.9334385
  26.8593788  54.3841410  12.3178995  82.6919937  76.9154453  63.3460712
  83.4948921  76.4228058  63.5160494  82.5216198  76.7814493  62.4137402
  83.8635254   3.2219872  13.4441829  84.1719627   2.4637371  12.9480457
  84.6481800   3.5622770  13.8740134   0.5699190  42.9803467  34.5272923
  -0.2174727  43.1078053  35.0564504   0.4623636  42.1100187  34.1436315
  42.1470404  71.4366150   4.7062305  42.2795153  70.5383921   4.4031170
  41.4102077  71.7584419   4.1868708  29.9838686  65.8461523  35.0230026
  29.7123528  65.2728796  34.3061543  30.9047747  66.0351419  34.8428750
  80.6207371  13.3908677  28.9330482  80.4152012  12.9916394  28.0877066
  80.8931160  14.2826653  28.7168598  24.8498225  50.8464241  45.5667019
  25.5712962  50.3428698  45.9437180  24.4898725  50.2769089  44.8867607
  17.3567605  15.3076339  45.9635687  18.0129731  14.8856211  45.4090214
  17.8325641  15.5447602  46.7595673  19.5911968  38.8605618  67.7761650
  19.6196878  38.0054808  67.3469162  19.1495264  39.4301534  67.1463013
  86.4722443   1.4576709   3.3685198  85.8756542   1.0676871   4.0074456
  86.9224262   0.7106756   2.9741073  50.1392698  66.9284391  45.5120516
  49.9222851  67.2078133  46.4014864  50.9992790  67.3132896  45.3432131
  72.9001045   8.7774307   7.0808977  71.9835663   8.8159788   6.8075824
  72.8623867   8.6095977   8.0225140  74.9176359   3.1713828  55.0145340
  74.3735981   2.4762157  54.6444035  75.8153439   2.9024523  54.8195362
  48.8556814   1.0302203  53.1347132  49.2301655   1.3028187  53.9723778
  48.1357479   0.4461221  53.3729506  -0.0031843  16.9092345  25.4506874
   0.6402006  16.2270367  25.6427646   0.2912291  17.2900021  24.6233010
  12.3616588   2.8596601  23.5329103  12.6175070   3.5701635  24.1210914
  13.1218719   2.2783023  23.5147119  15.7907736  33.6479449  42.3043394
  15.1745582  34.3724680  42.1967411  16.5303457  34.0306282  42.7763748
  23.8974524  11.9642413  53.7008095  24.1908240  12.7315271  54.1921711
  23.7968540  11.2800753  54.3626499  81.5116310   3.1648937  12.0792174
  81.1212540   3.7637120  11.4426231  82.3157024   3.6028779  12.3582673
  14.3740082   9.6427953  58.2408285  13.6489999   9.1060114  58.5609198
  14.0082550  10.1196194  57.4957800  28.1340837  52.3037243  49.5299768
  27.4660707  51.8776083  50.0670195  28.8098288  51.6358328  49.4136858
  13.4047973  60.5822897  58.2160568  13.3032572  59.7989368  57.6754236
  12.5706756  60.6639576  58.6784458  21.1135387  63.7139559  28.8385034
  21.7377639  63.7862062  28.1164551  21.6469431  63.4604168  29.5917845
  50.9313965  60.0603294   2.9941303  50.4651308  60.3944731   2.2278567
  50.6294537  60.6104374   3.7169307  70.6415844  74.6135378  63.6916494
  71.4238405  74.0960026  63.8826227  70.2902269  74.2290926  62.8885412
  10.8925641  60.8502960  41.0727453  11.5266371  61.3408661  41.5957403
  10.0420201  61.0902882  41.4404583  77.7380419  52.6356888  60.8677959
  78.1207609  51.8571758  61.2723637  77.6228333  52.3957300  59.9483490
  75.3260565   5.0317711  66.0046053  74.9151325   5.8668083  66.2284088
  74.6842766   4.3713850  66.2658453  80.4438496  15.6302595  46.6173172
  79.9587440  15.0035465  47.1540976  81.3640690  15.4390872  46.7986488
  13.3548534  67.4493408  62.8912449  13.0492389  67.1703386  62.0281172
  13.4207702  66.6384888  63.3956242  44.9291849   5.1562381  26.8270683
  45.6445885   5.1593548  27.4630094  45.3604174   5.2754712  25.9808660
   6.4927161  35.3921008  57.8515625   6.4623475  35.2167606  56.9110489
   5.8472800  34.7936511  58.2277298  73.0390072  27.1596646  32.4469185
  72.8027582  27.1701574  33.3744478  73.5319376  27.9696918  32.3161316
  50.2543449  15.5020237  14.3795776  50.7424116  16.1746526  13.9046097
  50.3437328  15.7467210  15.3006458  67.6330709  51.9265652  63.6361265
  66.9807005  51.7786932  64.3207979  68.4717846  51.7499781  64.0622854
  63.3850288  24.5071864  24.1917729  64.1714954  24.3779850  23.6616683
  62.8492785  25.1144195  23.6814094   3.7617356  59.3602085  37.8410316
   3.7920034  59.8157692  36.9997358   4.1502607  59.9769211  38.4614706
  81.9617748  26.4989090   9.0940422  82.3964882  25.8098030   8.5916597
  81.4625359  26.9915509   8.4426576  10.3679919  24.5718336  20.1780534
  10.1424885  23.6419392  20.2040410  10.8101451  24.6876502  19.3370295
  23.2041001  39.0494585  40.4947758  23.8510513  38.7947559  39.8368907
  23.7050676  39.5411730  41.1455297  28.4820938  30.5586171  48.7447500
  29.1820145  30.9505081  48.2224846  28.6837268  29.6229219  48.7518263
  69.1987705  47.8422499  33.4804845  69.7913742  48.5879230  33.3854771
  69.7782421  47.0853853  33.5676694  11.2471390  73.6019516   8.3525240
  11.6038728  72.7149010   8.3065540  11.9288933  74.1543961   7.9701006
   1.1887655  18.1662512  57.0344591   1.0274561  18.2055926  57.9771471
   1.3839583  17.2449636  56.8631077   7.4723417  55.7804394  65.8103657
   8.1892627  55.4499960  66.3517189   6.9504428  56.3179541  66.4061213
  46.5979433  72.3918390   8.1858712  45.8756161  73.0179310   8.2356691
  47.2121572  72.7836657   7.5650269   2.7972579  79.0436649  47.6602125
   3.1081870  79.7725916  48.1970739   3.3791590  78.3169794  47.8828144
  81.5254402  73.4449482  62.4981880  81.7858791  72.8713131  61.7775345
  81.4587975  74.3133116  62.1010208  67.4874401  21.9216847  42.4827337
  68.2014990  21.2944984  42.5966930  66.8061256  21.4285040  42.0257616
  24.0899253  57.5917053  38.9129066  24.2711806  56.8650723  38.3167696
  24.8059893  58.2089329  38.7628603  19.3618345  63.6648130  42.4314308
  18.8504338  63.4821320  43.2196760  19.8417032  62.8537035  42.2639322
  84.7292519  69.4891119   8.2223123  84.3049812  68.6842203   8.5195762
  84.7896099  69.3911791   7.2720510  39.1758108  61.6918898  56.5341282
  39.7221375  61.4901161  55.7744932  39.7046018  62.2955179  57.0558977
  22.1662188  55.2183342  35.0774074  21.2991428  54.9341917  35.3666782
  22.0211387  55.5762768  34.2015862  59.2362452  69.6784496  11.2401390
  60.0337172  70.1620674  11.4555037  59.0683937  69.8901081  10.3218484
   4.3718323  38.9018106  61.9067621   5.2105308  39.3145013  61.7005968
   3.8898218  38.9127707  61.0798502  12.1704853  41.6390228  36.0399127
  12.5428498  41.7332411  35.1631570  11.5316021  40.9314346  35.9540224
  23.9359260  65.5408239  63.7797642  23.0420399  65.2984715  64.0215588
  23.8281894  66.2247324  63.1187868  22.3163033  37.4248123  55.2712727
  21.8418717  37.9908204  55.8801889  21.6561961  36.8091750  54.9527073
  82.9918003  36.2994123  58.9336348  83.3145523  35.4025507  59.0213823
  82.1224880  36.2041211  58.5444736  68.6549044  40.6794500  25.7041383
  67.8828669  40.7105732  25.1391482  69.3819857  40.5042410  25.1067352
  15.2678037  80.8859253  38.4633207  14.6118510  81.0924625  39.1291285
  15.0339985  81.4382362  37.7173138  58.7287283   1.1752129   0.5858761
  59.2592573   1.9715077   0.5597108  58.6018705   1.0024752   1.5187752
  67.0318604  46.8787432  60.4918432  66.8777561  47.0289040  61.4245462
  67.7061939  46.1998653  60.4667521  17.5406241  62.2677565   9.4174612
  17.3361719  63.0634642   9.9086577  17.0044684  62.3298597   8.6269468
  10.0884092  53.8200760  35.2625823  10.1970840  53.5427952  34.3528914
  10.8627391  54.3524551  35.4448342  40.4270554  39.2018318  65.9713602
  41.2070084  39.2467475  66.5244293  39.9521279  40.0110054  66.1608744
  12.3196018  66.7951775  68.4902096  12.1115756  66.0284758  67.9562426
  12.1952057  66.4997911  69.3921566  11.3642669  40.9310293  47.9935551
  11.1416149  40.6993008  47.0919132  12.0136225  40.2782726  48.2552385
  38.0338502  53.4211779  67.7583790  37.8014517  53.6907530  66.8698120
  37.2838449  52.9064846  68.0564022  65.3399754  26.9215989  49.5508432
  65.7836390  26.8040586  50.3908300  64.9905729  26.0554457  49.3412542
  83.5200882  47.2454262  33.6794877  84.1479301  47.9530668  33.5335636
  84.0620232  46.4806414  33.8735080  38.2493448  64.0407705   0.6311849
  38.0695534  63.7973070   1.5392768  38.5386586  63.2273054   0.2179043
  26.9473004  56.3889217  52.8375340  26.7624807  55.4674339  52.6560354
  27.8981686  56.4266682  52.9407692  40.4470444  64.1781855   4.7893170
  40.9023476  63.6598444   5.4528344  40.0067568  64.8684740   5.2851743
  58.7624741  41.5728188  61.3350725  58.0767727  41.7987061  61.9635773
  59.3812752  41.0416937  61.8362999  10.6303036  81.1418152  41.4153767
  10.4539239  81.6304970  42.2193146  10.2006495  80.2970409  41.5494490
  73.8046789  47.2599125  61.9883156  73.9015150  48.0751276  62.4805355
  72.8953552  47.2671366  61.6894770  12.1837914  55.4541397  69.3741846
  11.8725955  54.5565319  69.2571545  11.4455748  56.0006237  69.1047049
  20.1194263  45.4365015  39.3652225  20.8284163  46.0582972  39.2011070
  20.2687311  45.1339769  40.2610016  26.7961812  33.6561751  60.6531334
  26.3490176  34.4398904  60.3336573  26.0904622  33.0832124  60.9529734
  39.9405265   8.4910667  27.6314974  39.5916796   7.9603219  28.3476305
  39.1896558   8.9965767  27.3202372  55.0064993  22.6229191   4.8768035
  54.6749926  22.2232628   4.0726826  54.5047951  23.4332037   4.9660257
   9.5317990  75.4102564  68.7803221  10.4269075  75.7475138  68.7446785
   9.4391596  74.8918676  67.9809952  36.5710449  76.6905975  18.8364232
  36.2513804  77.5625086  18.6044526  36.8632674  76.7762232  19.7438967
  83.7270641  69.6441174  56.3602877  83.0105782  70.2627516  56.2182713
  84.5062065  70.1042366  56.0481071   9.6961045  60.7225752  63.7195969
   8.8367504  60.4806137  64.0648508  10.1632750  59.8913288  63.6358261
  25.4941010  21.1054468  59.7765207  26.0848260  21.3552547  60.4870653
  24.7528195  21.7053580  59.8592377  15.5338848  21.0598278   6.1600357
  15.3680110  21.4139175   5.2863431  15.1972020  20.1645374   6.1235178
  52.2541428  24.6039939  48.8804007  53.1266117  24.6536946  48.4898186
  51.9047165  23.7649870  48.5800648  65.8467770   8.0455184   1.4358653
  66.0720158   7.3026478   0.8758271  66.6503382   8.2316172   1.9215548
  44.5451021  13.9491951  13.3984828  44.2946148  14.7782779  12.9909170
  45.4716444  13.8459289  13.1814814  46.9213057  63.2875395   1.5305838
  46.4750862  64.1333008   1.5731154  46.3782454  62.7593756   0.9454737
  35.6383204  55.3040504  29.8918700  35.7352996  55.7397699  29.0451264
  36.1806202  54.5185232  29.8205185  78.7711668  21.4026332  40.2918482
  78.8799477  20.5702734  39.8318744  78.1357241  21.2134886  40.9822607
   2.9224294  45.5853987  50.0209188   2.0791064  45.2332926  50.3056335
   3.5122132  45.4184008  50.7561064  13.1480813  46.0287142  46.1859655
  12.4285293  46.6032648  45.9244919  13.9348030  46.4679003  45.8628225
   2.5874937  43.2639647  56.4786243   2.6528490  43.2099771  57.4320650
   1.6466117  43.2843399  56.3038158  49.6726847  67.6289511  14.6459532
  49.0530396  68.2588148  15.0141108  49.2301655  67.2825289  13.8710964
  16.2030101  35.6369925  53.2733440  17.1574390  35.7057595  53.2971430
  15.9780574  35.7450914  52.3492527  51.5418911  14.8166299  45.0003576
  52.2170782  14.5960426  45.6419945  51.9507742  15.4756558  44.4393492
   7.5745529  45.9512854  39.4380403   7.8157198  45.6130219  38.5756898
   6.7910868  46.4775181  39.2783713  33.7886000  70.6543827   1.5443832
  34.3261790  70.3974771   0.7952232  33.6825371  69.8488951   2.0505205
  53.7215185   7.5475585   6.9746113  54.4825840   8.0462474   7.2718048
  53.4033108   8.0286843   6.2107444  25.8081388  43.3141422  38.0411959
  25.4562759  43.5826921  38.8899040  26.6405487  43.7810755  37.9684210
   2.9374152  53.7365627  52.2433233   3.8610953  53.4857750  52.2310019
   2.8655082  54.3499565  52.9746294  14.0958488  71.2328815  41.5835142
  14.5633209  71.7301083  42.2546816  14.0368104  71.8319082  40.8392620
  66.1147213   4.5359516   9.7723347  65.9709311   4.2460513  10.6731749
  67.0584488   4.4464508   9.6396708  39.1678905  73.7647486  15.3126132
  39.5041656  72.9611015  15.7092309  38.9418387  74.3227053  16.0567999
   2.1972419  35.0611901  70.2705860   1.7084654  34.2623353  70.4684782
   2.3602390  35.0150728  69.3284941  25.4952025   8.0139959  52.0177269
  25.4410267   8.9012778  51.6627264  25.4903746   7.4468172  51.2466764
  64.5854712   1.7180182  45.4926395  64.8762703   1.1852142  44.7525120
  64.4975901   1.0964996  46.2152910  49.5389605   4.1928238   8.0854952
  49.8646832   5.0917441   8.1311029  48.8132477   4.1690981   8.7092018
  40.5431271  72.0610857  19.8563170  40.3874063  71.1882877  20.2171659
  41.0763311  72.5020790  20.5177188  44.2020559  24.1147470   6.0553443
  44.9658346  24.6450877   6.2825167  43.5918522  24.2507696   6.7801774
   0.1707551  10.4834020  50.8116722  -0.6756782  10.2886593  51.2139893
   0.5720640   9.6258450  50.6710291  74.1568089   0.5882866  23.7792039
  75.0696707   0.6488179  24.0607285  73.6612082   0.4924029  24.5924783
   9.3798369  45.8683205  42.2209454   9.2082310  46.7902660  42.0291138
   8.8377464  45.3884602  41.5947676  30.0907850  80.5753326  21.8968439
  29.5830917  80.3892136  21.1070085  30.1878428  79.7248125  22.3251367
  74.0620518   4.0945372   3.3219025  73.9861441   4.9914148   2.9962024
  73.2592106   3.9531553   3.8235921   8.1684774   9.6398884  55.2094698
   8.5252637   8.7936705  54.9395609   8.6893898   9.8867005  55.9736490
  77.4119139  73.4001064  23.1986618  78.1182528  72.9165840  22.7702641
  77.6037121  74.3192577  23.0126333  17.2344816  44.2692471  47.0004940
  16.6547370  44.7516918  46.4111137  17.8092420  44.9385023  47.3719454
  68.6927319  29.9671769  52.0774460  68.7962389  29.2773199  51.4219952
  69.5716429  30.3314257  52.1826506   6.7615902   5.9106988  44.8234844
   5.9357035   5.6249624  45.2139950   6.5049189   6.5599209  44.1686106
  53.0015707  76.3723326  -0.2848977  53.5472870  75.5970526  -0.1531102
  52.4284887  76.3949251   0.4814553  39.2155480  44.5562124   9.7648507
  39.8836184  44.4533920   9.0871036  38.8616014  45.4338694   9.6210814
  19.3030632  73.0660391  68.8292170  19.7764766  72.2520161  69.0008879
  19.9820781  73.7406445  68.8200569   1.0395836  34.6889520  32.6363206
   1.7348161  34.0372825  32.5457096   0.2845007  34.2960835  32.1984458
  75.0939083  64.4783878  53.3031893  75.4537630  63.7971020  52.7352190
  74.3615675  64.0547991  53.7509394  25.8379340  38.8347101  34.0709519
  25.9924173  39.3519235  34.8614311  25.1735592  39.3269277  33.5887051
  14.9255347  74.7147179  34.5573092  14.3639684  73.9401007  34.5863318
  14.3721282  75.4241228  34.8839927  31.4298296  65.6840658  64.3474770
  31.7034030  66.4014530  63.7758589  30.4929829  65.5861473  64.1772890
  57.1432686  29.9251103  22.7135110  57.3198700  30.1954365  23.6146021
  56.9297600  30.7387972  22.2568250  36.8404388  58.0812693  45.7256031
  36.1084104  58.6843348  45.8547401  36.5575981  57.5108337  45.0108767
   2.3743761  73.2525969  69.3647432   2.3977651  72.8858089  70.2485704
   2.3428233  74.1997719  69.4992590  31.2876511  60.0121403  53.4354734
  31.3325882  60.4644823  54.2778540  31.3450933  60.7116604  52.7846241
  63.9430809  27.2500587  14.1203737  63.8095808  26.4190555  14.5762742
  63.7386942  27.9178858  14.7749460  30.9903455   6.9302082  37.5037098
  31.6085458   6.3043237  37.1264410  30.6329775   7.3983562  36.7491531
  67.9972410  18.2460618   4.3162769  67.7188683  18.9667821   3.7512091
  67.5106764  17.4873590   3.9940080  35.5488205  68.9436197  57.4453163
  34.7668386  68.4612131  57.7136850  36.2408400  68.6169863  58.0203390
  66.0399532  20.6670380  57.8819323  65.1378298  20.6614709  57.5619793
  65.9727335  20.9844208  58.7824774  16.9148350  69.8678160  53.9048481
  16.4555657  69.1971111  54.4102764  17.5822639  70.2035379  54.5032310
  17.4615955  53.7760305  55.2147627  16.8612349  53.4678221  54.5359373
  18.3307743  53.6886883  54.8234415   3.9424741  54.9540710  28.9288521
   3.7032333  54.0454292  29.1115189   4.6743596  55.1324034  29.5194221
   1.8752736  67.6152802  66.5273523   1.5657626  67.7617693  65.6334972
   2.6972649  67.1365309  66.4207506  74.5128059  58.0219650  26.3775611
  74.2824697  57.1131229  26.1847520  75.2055311  58.2315540  25.7511163
  15.2634394  59.1731977  11.5020180  15.6240106  58.3738470  11.8857634
  14.9119711  59.6595001  12.2478139  79.8061228   2.3286414  22.8246427
  79.0731001   2.2182980  23.4302306  80.3351021   1.5396556  22.9426003
  68.7626696  61.0745382   2.7590474  69.2293167  61.7975998   3.1781611
  68.4178019  60.5579042   3.4873229  85.7617664  66.0278654  44.0918732
  86.1125469  65.3547239  43.5087252  85.3803158  66.6794109  43.5034704
  24.0060449  68.6001205  19.6024060  24.1064858  69.4858074  19.9512577
  24.4174933  68.0365324  20.2576256  11.9950104  67.6330709  33.3968592
  12.4332058  66.7828083  33.4324813  12.4107301  68.0862236  32.6633310
   0.8560854  39.4893813   6.6917312   1.7732561  39.6339607   6.4590794
   0.6239294  38.6708045   6.2532455  79.6426296   8.6813426  13.7413919
  79.9975157   7.8235507  13.5079813  79.4839859   8.6265516  14.6837616
   4.4543532  66.2775517  28.5726357   3.4998930  66.2617874  28.6432648
   4.6401781  65.8422470  27.7406454  16.8568134  44.5998907  53.6212063
  16.1674786  44.1412830  53.1408644  16.9899118  44.0738344  54.4097376
  30.0740552  64.8272943  44.4629717  29.8380971  65.4530478  45.1478004
  29.8409152  65.2675295  43.6456156  39.1429138  41.6492176  33.3366346
  38.3621311  41.0983562  33.2803917  38.9129639  42.4409771  32.8503513
  32.7961230  60.1608753  58.6853790  33.5855532  59.6277237  58.5916615
  32.0745254  59.5395803  58.5878086   3.3783844  44.3627167  60.2444315
   3.9841896  43.9753866  59.6126032   3.4852511  45.3071213  60.1308012
   2.4315536  34.1727281  20.0606012   1.7729017  34.7818851  20.3942752
   3.0761734  34.1074252  20.7651806  21.6077042  78.6287022  33.8972592
  21.1501718  79.1598558  34.5490050  22.4467564  79.0723038  33.7729955
  63.2161409  55.6629930   0.4422419  63.2203776  54.8204170  -0.0119407
  62.4350649  56.1082338   0.1137440  69.7894907  26.5052557  16.8799675
  68.9215374  26.4603090  16.4788902  69.8429298  25.7194996  17.4239922
   6.5979004  55.2079535  56.3908863   6.5630466  55.9319258  55.7656813
   7.5327528  55.0505924  56.5232468  75.6481695  13.0988312  14.5592749
  75.5348492  12.3292315  15.1170444  74.8574829  13.1225312  14.0203035
  41.2248707  81.3813496  11.7513013  41.0165787  80.5397797  12.1570122
  40.5216694  81.5221977  11.1173451  62.9040126  81.7827386   3.9665520
  62.8031520  81.6965582   3.0185899  63.5087619  81.0811051   4.2078406
  12.8524888  45.4081106  54.2513418  12.8350139  45.3283405  55.2050543
  13.2912576  44.6116590  53.9523792  51.5846062  79.0610743  19.8925805
  51.4210701  78.7390566  19.0061307  51.2749577  78.3581018  20.4637003
  25.1092386  75.0582838  48.0145979  24.5205736  75.4781103  47.3873425
  25.4312372  74.2811871  47.5577974  19.8926640  24.4048166  34.3661451
  20.1835799  23.5328293  34.0992427  20.3992367  24.5950627  35.1557183
  84.8927402  61.7548084  11.4531481  85.2151775  61.9648695  12.3295856
  84.8886013  60.7981110  11.4223897  38.5846376  57.1215725  39.6108484
  39.0696311  56.2976742  39.6578050  37.9110098  56.9655752  38.9489412
  17.3507583  34.5005941   6.8593889  17.0040035  34.6114135   5.9741139
  17.0375550  33.6384988   7.1331197  77.8800297   8.8193369  60.4304647
  78.6061668   8.6942410  59.8194790  77.2106266   9.2720377  59.9174404
  38.2889152  49.6783590  38.9052963  38.3840227  48.7883329  38.5661244
  38.0819154  49.5605326  39.8323894  57.4140263  71.1359787  30.6317592
  57.7907896  70.9605026  31.4940166  56.4704227  71.0363102  30.7579041
   8.6644489  67.8731060  35.9073329   8.8442296  68.5385084  36.5715265
   8.3253473  67.1268177  36.4015937  79.7747231   8.8897282  58.4327269
  80.5077171   8.2741451  58.4311533  79.8864698   9.3972743  57.6288986
  35.7600904  54.4139481  33.8789439  35.5637169  53.6689329  34.4469452
  34.9348617  54.5966673  33.4296775  35.5505991  28.4676099   9.7226673
  35.3100681  28.8471651  10.5678391  35.7330561  27.5481200   9.9162620
  22.7119231  59.1388035  50.4218435  21.9380450  59.5535898  50.0406647
  23.4389186  59.4433641  49.8787498   9.7758627  49.7024393  32.4698901
  10.5802131  50.1552629  32.7232718  10.0618029  48.8196564  32.2350168
  13.6002946  29.9187732  11.7069161  12.7592766  29.6482992  12.0753777
  13.8787377  29.1742063  11.1736977  30.1966715  61.3603973  70.0860119
  29.9833941  62.2363043  70.4077768  30.7219672  61.5149736  69.3008995
   3.2051346  63.2340860  36.8636322   2.9811245  63.6040115  36.0096979
   2.4475740  62.6983070  37.0987391  20.2010465  64.6837234  10.4606521
  21.1552405  64.6116304  10.4372442  19.9880290  65.2780056   9.7411513
  72.3749924  54.0532112  56.0649204  72.1584797  54.1540337  55.1379967
  73.3311367  54.0885878  56.0927677  76.6979837  68.5920191  58.1661654
  76.6130829  68.9761972  59.0387630  75.9242392  68.0362844  58.0728197
   8.8168746  41.7851591  15.1559591   9.5156771  41.5124321  14.5613778
   8.0092859  41.6083431  14.6735001   1.7777094  31.4615417  34.0717220
   1.2840530  32.2564793  34.2732334   1.7145357  30.9323525  34.8668337
   9.2841631  76.1220789  33.5554314   8.9640677  76.4130926  32.7015686
   9.1721743  75.1715469  33.5419488  39.9124289  79.6970940  34.8414969
  39.0221477  80.0368214  34.9321342  40.1231623  79.3439102  35.7058358
  36.7347288  80.0239944  13.0572224  36.9572163  80.6271458  12.3480427
  36.3861942  80.5860710  13.7491953  64.5169640  60.2564001  31.2128162
  64.0106249  59.9467325  31.9637895  65.4098940  59.9587059  31.3868308
  63.3660603  17.1445763  57.6373196  64.3161726  17.2351563  57.5644112
  63.2183456  16.1999595  57.6832771  43.8286924  55.4074001  40.4057360
  44.0512180  54.6924162  39.8094869  43.4889412  56.0974550  39.8359752
  36.5012932  64.4524622  67.0767069  36.3111019  63.5793686  67.4198866
  36.8320704  64.9396181  67.8313589  34.0953279  60.3821659  61.1584139
  33.5451245  60.3983688  61.9415140  33.4747148  60.3548765  60.4301786
  36.3165498  41.5144730  25.2005816  36.5104890  41.0198879  24.4043374
  36.7913151  41.0521650  25.8913064  75.0472975   4.2238507  48.9111233
  74.1237068   4.0429729  49.0857506  75.0735331   4.4628838  47.9846239
  16.1827922  80.2109051  60.6198120  15.7994092  79.5921040  61.2413788
  17.1218503  80.0275230  60.6476212  56.2681246  14.9629915  19.2119753
  56.7483473  14.5915127  19.9519920  55.4326010  15.2436757  19.5852673
  41.1513710  42.9641771   5.2198881  41.5002108  42.3878765   5.8999020
  41.9261217  43.3601427   4.8208839  85.5102253  64.1223335  64.9667597
  85.2431107  64.6631384  65.7100058  85.8730316  64.7443295  64.3361092
  67.2091103  25.9482670   0.8736424  68.0260563  25.4508710   0.8358578
  66.5257645  25.2996826   0.7044901  40.1626015  66.3065481  68.1040001
  40.8987427  66.8841267  68.3058214  39.4000125  66.8849850  68.0941772
   4.7342962  65.4193068  43.1141853   5.1112527  65.2052164  43.9675903
   5.0833279  66.2866545  42.9089546  34.1676760  73.5507631  54.9924660
  34.1235566  72.6034307  54.8626471  34.2284822  73.6598921  55.9414768
  -0.1548831  61.4154100  33.1091452   0.7515176  61.3929033  32.8023005
  -0.5066649  60.5551243  32.8802538  43.7689877  68.3195400  26.6454339
  44.2885494  68.8260031  27.2697568  42.9335451  68.1759024  27.0900011
  32.1426272  67.4634409  48.9839220  31.5110564  67.0579529  48.3898449
  32.9959393  67.1775103  48.6578321  26.4469433  56.7640829  14.0227675
  26.3269067  57.2506571  13.2072508  26.0933018  55.8942318  13.8369501
  59.6653271   2.7585495  50.6990623  59.5619059   1.8772033  51.0579014
  59.7304583   2.6259786  49.7533274  26.0485482  60.2085304  37.1076632
  26.0433435  60.4298353  36.1764145  26.7668200  60.7253456  37.4726558
  83.9788055  47.6046467  47.5098848  83.2947063  48.2170010  47.2392082
  84.1825390  47.1076536  46.7175961   7.6328242  67.5228930  55.7374620
   8.3958870  68.0952358  55.6575441   6.8825561  68.1143904  55.6786728
  28.4632540  73.2661629  60.1318216  27.9755044  73.9279079  59.6414948
  28.4854603  72.5056791  59.5509577  40.2498722  68.6052895  65.1834297
  39.7897291  68.8725996  65.9790707  40.1300669  69.3383598  64.5797014
  20.4857326  68.0592442  45.4172611  20.5606103  68.7175226  46.1081266
  19.7074270  68.3176136  44.9235868  20.5288529  71.9835663  30.2737784
  19.7692513  71.7811823  29.7276306  20.6725311  71.1891747  30.7881021
  18.7348866  58.3556938  28.5245252  18.3114898  59.0991926  28.0953646
  18.5724068  58.4934711  29.4577193  50.3238487   9.7121978  29.7616100
  50.4361629  10.5597115  30.1921201  49.4715357   9.7737157  29.3303227
  84.2909908   4.8711309  17.9173648  83.9885044   4.2338744  17.2703421
  83.6512280   4.8139924  18.6270630  60.3416491  34.5917416  11.1890233
  61.1087942  34.0193200  11.1966562  60.4247808  35.0928426  10.3777182
  15.5012429   8.6675245  16.9368398  15.2395201   7.8280944  17.3151135
  16.1300457   9.0266722  17.5628209  22.1215272  57.1950865  67.0165396
  21.4351821  56.9664764  66.3897228  22.6437235  56.3973808  67.1014452
  27.8483891  28.5373807  23.1517124  27.0860481  27.9821467  22.9880548
  27.6838326  28.9225316  24.0124154  85.4764652  60.2504778   5.4836208
  84.7910309  60.9093714   5.3727978  86.2849331  60.7031679   5.2434611
  27.3832417  36.8218613  29.5623469  27.4980736  37.2555780  30.4078865
  27.8713083  37.3670530  28.9452672  69.6031809  44.3357468   3.0368668
  70.4540014  44.7457838   2.8812921  69.1283751  44.4494534   2.2135419
  29.4504499  58.6417913  19.3036485  28.5423231  58.4132862  19.1053474
  29.9704003  58.0124378  18.8038468  55.5576563  78.5655594  68.7086868
  54.8051167  78.0435276  68.9868975  55.3605700  79.4512701  69.0134859
   6.5152615  48.4873962  22.8514910   5.8674467  47.7910328  22.7435756
   6.3994211  48.7845230  23.7540030  42.8570938  69.6804523  48.5388565
  43.1963253  69.7328806  49.4323921  42.1056843  69.0908766  48.6021471
  47.5578785  77.8473377  58.2113647  48.0492735  77.7098846  57.4015093
  47.7574348  78.7491989  58.4624720  26.4189577  38.7637234   2.7742070
  25.5915117  38.3474755   3.0156678  27.0824146  38.0956364   2.9465950
  46.3785887  56.7429495  30.5079842  45.5795813  56.5041161  30.9778523
  46.2870932  57.6810741  30.3413081  43.4096289   1.9800971   6.4569342
  43.8407516   2.1986692   5.6307423  44.1206694   1.9479185   7.0969462
  25.3229117  68.2360840  46.6361618  25.1174402  69.1485453  46.8396950
  24.4704890  67.8030348  46.5906286  27.7124453  67.7594376  42.3708677
  27.3107886  67.7147579  43.2385731  27.3106623  68.5249853  41.9600868
  74.4437218   7.5600964  41.4343166  74.8944807   7.7692097  42.2524405
  74.8228550   6.7255819  41.1585045   9.8499006  31.6365314  12.2671294
   9.5097440  31.4208341  11.3987982  10.7809019  31.8068814  12.1241319
  45.7607698   7.2678071  56.0608768  45.5420017   6.5736341  55.4391861
  46.4511919   7.7690816  55.6269693  34.7853422  65.6537390  21.1164975
  34.4024277  64.8865938  21.5420532  35.6794071  65.6946087  21.4559245
  73.2047749   0.3113654  65.3637791  73.2946777   0.2695064  64.4117260
  73.9325047  -0.2139871  65.6964064  35.0147271  55.5741310  42.9941654
  34.3748522  55.1492977  43.5653973  34.4924140  56.1508799  42.4366856
  86.1746693  45.8310413  34.3214083  86.3235760  46.2227488  35.1820040
  86.6990280  45.0302744  34.3287563   5.8998793  67.8338099  30.2067494
   5.2497309  67.3650503  29.6834874   5.7766342  67.5013447  31.0958552
   5.6108600   8.7764019  -0.0290961   4.7120833   8.5045123   0.1566695
   6.1379778   7.9968715   0.1461496   6.2600797  43.5882378  53.6400652
   7.0151043  43.1042385  53.3055258   5.5534548  43.3826780  53.0279684
  18.4284127  66.8057108  24.0645385  17.7354133  66.7444849  24.7219849
  19.2110193  66.4820099  24.5106053  84.7070408  71.7933750  49.6456003
  85.1762962  72.5144339  50.0652456  84.2112923  71.3850021  50.3553200
  42.2034311  73.2103968  57.0494604  42.5560331  72.3653650  57.3284197
  42.2723436  73.1953335  56.0948658  20.0072694  79.6504974  22.7566361
  19.3054295  79.4735813  23.3830166  20.1218104  80.6003284  22.7872348
  42.1170568  69.2557669  61.6359663  43.0471611  69.3695068  61.8313980
  41.9128227  69.9625015  61.0235548  40.0076103  67.1823311  57.9270649
  39.6995449  66.6762877  58.6788940  39.4450259  67.9566240  57.9127693
  69.7614479   3.7863740  46.5011215  69.0744114   3.3290672  46.0162640
  69.7602654   4.6727046  46.1396646  54.7350550  59.9411011  20.3419757
  55.6750870  60.1213217  20.3515434  54.5551682  59.5616007  21.2021208
  62.3726368  42.1003246  18.5912991  62.1407127  43.0288363  18.6090076
  62.6517534  41.9060659  19.4860542  24.6917152  76.6197252   8.6436510
  24.1183901  76.4037848   9.3791085  24.1288877  76.5496159   7.8725863
  41.7768574  67.9995346  54.5776081  41.2259674  67.2219992  54.6681261
  42.6626301  67.6885748  54.7645378   5.3521460  39.3901110   3.4551087
   4.8690906  40.2163649   3.4410748   5.7656705  39.3397641   2.5933114
  24.3952560  43.7577868  40.4058456  23.5913658  43.5889006  39.9144483
  24.1691780  44.4776678  40.9948254  22.6083660  59.8073244  67.2353125
  22.3117638  58.8976336  67.2622395  22.4647188  60.0793505  66.3288927
  39.9720669  32.0431972  60.7972050  39.4973326  32.8357482  61.0476446
  39.3092871  31.4857554  60.3895140  25.2396727  66.7665434  52.2106838
  25.4508638  67.5192213  51.6583204  25.2168489  67.1207380  53.0996513
  10.0092328  25.7910705   1.0828638  10.2576911  26.7062020   0.9523511
  10.8144057  25.2990270   0.9221729   3.7094334   3.4217435  40.9940577
   3.8937235   3.5675582  40.0661516   3.9317811   4.2517954  41.4157295
  40.4233742  58.3613968  41.2768841  39.9284220  57.8810024  40.6132030
  40.7366657  59.1434956  40.8225727  30.1574183  26.9140792  32.3737717
  29.7142458  26.1083460  32.6395226  29.6788645  27.2059131  31.5978527
  27.8543067  54.8605919  56.1798525  28.3384085  55.5707312  55.7584524
  27.7640915  54.1947269  55.4981518  58.7342930  21.3363504  66.7339849
  58.2196522  22.0766735  66.4125872  59.5654678  21.4002419  66.2635612
  18.4003174  53.1581879  38.8644648  17.6405752  53.3982229  39.3949437
  18.8300824  52.4628067  39.3624425  25.3868312  40.2370645  70.0177453
  26.2351912  40.6798364  70.0393274  25.2603740  39.9180223  70.9113075
  71.0662174  76.0605907  49.4399881  71.7821836  75.9234095  48.8196659
  70.4657078  75.3331518  49.2773390   9.1547370  68.8255215  42.2835493
  10.0464678  69.1723442  42.3111868   9.1127074  68.2139683  43.0187130
  15.5780447  48.4999943  22.3532748  15.3476954  47.6011705  22.5884080
  15.8208537  48.4509611  21.4286828  39.3745494  68.4980488  45.0411320
  38.4930658  68.3539724  44.6969557  39.2338705  68.8627529  45.9148788
  14.2988396  45.4596233  19.1203403  13.6704063  45.9782791  19.6226358
  14.8094714  44.9945164  19.7830319  17.3081076  50.3876734  51.8920183
  17.2567689  49.5279694  52.3097610  17.5859964  50.2019119  50.9950781
  72.4663305  14.6937988   0.6204264  72.4103200  15.5539892   1.0365622
  71.7311835  14.2022227   0.9866850  81.2957287  56.1172485  63.4294081
  80.8346939  55.9634542  64.2540455  80.8605862  56.8810272  63.0505610
  39.5595670  55.7508993  28.4308624  40.4336119  55.7029724  28.0435872
  38.9630675  55.6687117  27.6867771  16.8370080  55.9743214  26.3133979
  16.5990174  55.7228756  27.2057915  16.3166714  55.3967094  25.7549715
  31.0634661  67.5849676  38.5000491  30.7106495  66.8173552  38.9500785
  31.0731936  68.2706738  39.1678405  16.4982307  38.4830499  33.9552546
  17.4472833  38.4352756  34.0703487  16.2690842  39.3732190  34.2223215
  68.5712957  19.6092200  23.6167932  69.0648937  20.3936625  23.8560510
  68.6046982  19.0575731  24.3983316  17.5785744  46.2022018  33.8704777
  18.0160809  46.3929749  33.0407643  18.0202162  45.4193735  34.1996717
  37.6229143  56.3571692  43.4499502  38.0746412  55.6062555  43.0648422
  36.7194390  56.2756395  43.1444740  25.3175306  60.2470636  34.4213510
  24.4060779  60.5230522  34.5178843  25.5377030  60.4606390  33.5146308
  65.9908676  65.6577778  31.4832234  65.5179214  64.8298931  31.3986015
  66.7238331  65.5783796  30.8727407  23.0110192  26.0079336  51.4615965
  22.7694821  25.2666378  50.9062910  23.7532282  25.6901860  51.9757938
   7.2862774  31.7641330   7.7558982   7.8671354  31.8979812   7.0069516
   6.8072379  30.9621477   7.5471556  20.7683277  52.0963764  56.9335270
  21.1750817  51.2693167  56.6751480  20.4013205  52.4466562  56.1218357
  38.9097214  74.5668268  47.7059031  38.7539959  73.6421728  47.8982592
  39.1024208  74.5873165  46.7685270  78.9070749  38.1357288  21.0397553
  78.4528255  38.6199021  21.7292953  79.0971041  37.2831202  21.4311337
  20.6727505  52.4826860  30.1766300  21.4284897  52.7210903  29.6397400
  20.1526880  53.2846546  30.2277088  36.8651748  72.3095036  26.5454030
  37.2615767  71.9430399  25.7549596  37.0900631  71.6869593  27.2368479
  63.1158829   7.5124681   5.8962208  63.0857611   7.9946208   5.0698709
  63.0847597   8.1909710   6.5706813  54.9522161  67.2205067  53.4145117
  54.9199581  66.2933779  53.1786633  55.8737040  67.3847818  53.6147594
  83.1068897  32.9654098  14.4578159  83.3737278  32.0464325  14.4352901
  82.4779224  33.0146050  15.1776862  11.2283790  55.6014061  64.7578144
  11.4854360  55.7934046  63.8559866  11.5593123  54.7176695  64.9182129
  29.6018600  63.8216114  54.8280525  28.9455271  63.1255817  54.8597240
  30.4305959  63.3777094  55.0079966  38.6523581  67.6634550  47.8909302
  38.0635214  67.0223093  48.2889700  38.2907963  68.5119867  48.1468534
  47.2688818  32.9706740  56.1390162  47.2714329  32.1823406  56.6819286
  47.1704388  33.6904287  56.7623091  15.9872556  52.1608114  53.6584949
  16.2820745  51.6129303  52.9310703  15.3972065  52.7974367  53.2550287
  37.9518199   1.5767147  62.0281696  37.0436954   1.3781257  62.2564316
  37.9980922   1.4330997  61.0829401   3.3684036  55.4759979  54.3074608
   4.1426474  56.0049295  54.1150904   3.4907132  55.1931143  55.2136898
  60.4519558  38.0485654  59.8449564  61.1961889  38.3881497  59.3479300
  60.4348183  38.5779500  60.6422567  64.9548721   9.7757655  59.9207354
  65.5658579   9.3780780  59.3004322  64.1847181   9.2078984  59.8958158
  66.5751725  58.2972143   0.2892821  65.8316070  58.4375797   0.8754866
  67.3097664  58.1119631   0.8743326  16.9586885  49.5512915  19.9977982
  16.6751742  49.9803877  19.1905046  17.8253531  49.9181986  20.1724434
  71.4328718  10.6658041  30.0672817  71.9859743   9.8959112  30.1998568
  71.6355467  10.9560466  29.1779470  43.2936096   4.1753364  64.0514755
  43.9924860   4.5895052  64.5577049  43.7230539   3.8771954  63.2496500
   6.0356569  30.0570607  25.6569791   5.6223810  29.6805024  26.4339209
   6.0801488  30.9954715  25.8403850  38.8202024  54.4112921  36.4503288
  38.3554649  54.9674034  37.0756245  38.8838434  53.5616732  36.8865967
  13.8856375  74.6786261  52.6432943  14.2531753  74.1057444  51.9702721
  14.5812249  74.7582579  53.2960176  21.9232907   0.5436993  23.2144594
  21.0060610   0.2735424  23.2584262  22.4177899  -0.2639008  23.3540440
  19.2729259  75.3209257  36.1427498  20.0880575  75.8060932  36.2708211
  18.6409497  75.9836912  35.8642244  80.0907326  26.8018198  35.7306862
  79.2474270  26.3815308  35.5620909  80.5840015  26.6831565  34.9190021
  68.7258720  71.5491962  42.6132727  69.6316814  71.8395138  42.7203035
  68.6868477  70.7112789  43.0743599  47.8823566  10.8174396  32.6315284
  47.9990339  10.9629679  33.5703802  47.7501488  11.6930151  32.2680449
   2.3019445  26.4796686  55.4435539   2.0314860  26.2649369  54.5508194
   1.7572710  25.9223747  55.9994173  64.2165804   4.8532468  30.5601430
  65.0406170   4.9017200  30.0755358  63.5396576   4.8667079  29.8835135
  67.1401739  64.8409367  10.4479742  67.0822763  64.4192648  11.3053381
  68.0663776  65.0627470  10.3522110   5.8541453   5.2046543   0.2268341
   5.6236720   4.3837130   0.6617701   5.2273685   5.8416158   0.5698537
  34.0463066  72.4452972  64.6811962  34.0694761  72.4859142  63.7251425
  33.1219006  72.5565100  64.9033165  10.0553250  68.5730553  26.7400122
   9.5518804  68.8787842  25.9854889   9.6907592  69.0549517  27.4823737
  66.6426849   3.6318976  24.1055059  65.7083082   3.8393810  24.1166568
  67.0586634   4.4191405  23.7541676  40.3441334   2.1281485   4.2230833
  40.4409599   1.2087409   3.9749983  40.4565954   2.1328595   5.1736420
  14.8189223  43.8467693  64.1167784  14.7683799  43.9162588  65.0701141
  13.9061666  43.8157940  63.8301659  14.3555605  78.0197144  23.3578563
  13.7982678  78.3445692  22.6506615  13.9486861  78.3550978  24.1567326
  24.0030909  72.4026060  37.3903298  23.8037801  72.1463299  38.2907915
  23.1747198  72.2973204  36.9224095  13.3898389  40.7094336   1.9983795
  13.7182772  39.8123407   1.9384861  14.1774714  41.2485170   2.0708747
  61.1946011  77.7334642  51.7116308  61.4650631  77.4271870  52.5772381
  61.2543678  76.9579744  51.1537075  38.1198668  63.2934189  65.2098322
  37.5778866  63.4919119  65.9734344  38.9960837  63.5914850  65.4540253
  20.2908230  66.0809374  37.2440410  20.3970838  65.2668476  36.7519045
  19.3556416  66.1192846  37.4445343  15.5127645  77.8634596  58.4036875
  14.7100806  77.9245615  58.9215660  16.1998427  77.6880169  59.0466309
  78.2217312  31.9122171  41.3386059  78.0751467  32.1148920  42.2625446
  77.6476431  32.5157428  40.8669996  82.1103382  30.0212336  30.9503031
  81.6061211  30.6537247  30.4384923  82.7949333  30.5431700  31.3688016
  15.1538324  54.7051287  45.1413918  15.0173867  54.8731899  44.2089891
  14.5386088  54.0023088  45.3506231  32.5459218  58.4492111  43.1413460
  33.4802437  58.6567926  43.1276989  32.2474074  58.6297703  42.2499895
  37.4060845  44.3644619  24.8409605  37.7107716  43.5444403  25.2295017
  36.6704607  44.1073370  24.2851043   3.1270686   0.5136091   6.0918671
   3.8765562   0.7067830   6.6550577   3.4811136   0.5443697   5.2030826
  25.3009796  69.7407675  66.8258858  25.1275730  70.5117655  67.3659945
  26.1118269  69.3768167  67.1812725  26.4987159  27.9318118  61.9404268
  26.2177444  27.2557163  61.3238382  26.8517566  27.4450111  62.6851511
  45.2549267  61.6031551  46.3977814  46.0002804  61.0856056  46.7024469
  44.5695066  60.9575939  46.2254906  25.8776546  12.8957975  33.0121779
  26.5702438  12.4300218  32.5435567  25.7376814  13.6933815  32.5017881
  65.9775972  61.9686747   6.8981034  66.4314461  61.2275887   6.4968026
  66.1221552  62.6949739   6.2916154  13.3711672  70.8806133  47.3966551
  14.0662539  70.9661865  48.0491638  12.6278520  70.5250216  47.8837633
  86.1438847  29.0864158   3.3653501  86.2320328  28.3330035   2.7815449
  87.0247650  29.4581127   3.4113747  20.5593252   1.9594841  69.3155670
  19.8475313   2.5966290  69.3758154  21.2701249   2.3453246  69.8275471
  56.6461515  67.4065638  50.1671076  56.6385794  66.8550587  49.3847942
  57.0840549  66.8741941  50.8312273  24.8667407  57.4683428  26.8808174
  24.5455194  58.1874609  27.4248004  25.8198166  57.5511980  26.9126296
  55.1951981  61.9240189  41.9831228  55.5425358  62.5051069  41.3064194
  54.3358850  61.6601133  41.6542292  26.8774343  68.6346388  26.8272352
  26.4088583  67.8554726  26.5279579  27.2841573  68.3676577  27.6515698
  33.7592626  65.9515429  55.6084299  33.8559842  66.4041376  56.4463091
  32.8471255  66.1007738  55.3594971  64.6459103   2.9828569  52.9967594
  65.4010630   3.2490417  52.4722433  64.1458178   2.4048468  52.4205256
  72.9257727   2.4891496  27.4350190  73.0768824   1.9119191  28.1834865
  72.9658508   1.9099930  26.6739655  20.2058077  75.6103230  65.7963848
  21.1428428  75.4416943  65.8951759  19.8252332  74.7504091  65.6176662
  30.8249736  64.1677666  29.5661473  31.1806846  64.5888519  28.7835956
  31.4559698  63.4790659  29.7753501   3.8869122  81.5656948  27.3634481
   3.8698244  81.9167042  28.2537985   3.8131300  80.6182480  27.4780607
  21.3263988  47.1502781   9.2168164  21.9006205  46.4028645   9.0498644
  21.1999106  47.5518560   8.3571845  11.1683238  44.0990877  39.1070104
  10.3072619  43.9928675  38.7026310  11.7427146  44.3522739  38.3843732
  30.8096194  60.3437138  38.4228730  31.4718509  60.2280617  39.1042709
  31.2470484  60.0736189  37.6154470  20.0532007  56.2094736  53.7721062
  20.5220985  56.8656588  53.2565546  20.1405168  56.5087461  54.6771145
  56.2010241   8.2472080   7.6446760  56.8173504   8.0412054   6.9418699
  56.2820292   9.1934085   7.7645731  77.0784807  16.1883223   3.0317447
  77.9039335  15.7563639   2.8120351  76.7417574  16.5024364   2.1925884
  67.8758621  23.6306596  60.4080629  67.2537279  24.3459558  60.5404663
  67.4015474  22.8464746  60.6843138  78.1028557  14.6281564  68.3778906
  78.7427187  13.9917898  68.6970186  77.7867603  15.0667262  69.1678095
  51.8253994  74.5314169  35.4348373  51.3415241  75.1929617  35.9292650
  52.5599337  74.2979097  36.0024381  85.8833981   4.5831209  49.2524624
  85.6406689   5.2207661  49.9238205  86.7400837   4.8764160  48.9421368
  42.9841185  70.7448626  56.7657471  43.3700800  70.4640198  55.9360552
  43.3974886  70.1857758  57.4236059  26.1899447  70.0434828  31.8806124
  26.2537551  69.9561548  32.8316808  25.4550552  70.6413460  31.7437601
  74.6321869  56.8629694  31.1541009  74.3247700  56.2625742  30.4749489
  74.7043180  57.7085972  30.7114482  16.0001802  52.8879309  42.5386763
  15.7465422  52.3209953  43.2670212  16.6905904  52.4028349  42.0867395
  40.5744362   2.3753025  52.9107714  40.3149652   1.9926155  52.0726442
  41.0847950   3.1493652  52.6728773  69.3208694  10.7275617   3.2681182
  69.0150881   9.8538291   3.0245596  68.8527060  11.3182688   2.6781020
  83.9010239   1.7817038  52.4836874  84.4979191   1.1500603  52.0824766
  83.3714485   2.1067116  51.7555666  14.6125042  28.3531904   7.2611505
  13.7661731  28.4052539   6.8170285  14.5010102  27.6566577   7.9081756
  54.1998291  22.6660442  40.7424068  53.2940674  22.3609543  40.6899738
  54.6714640  22.1263242  40.1079798  40.2028894  13.7056935   0.7193165
  39.9123168  13.0296540   0.1071325  40.8830976  13.2799339   1.2411208
  84.4710350  14.1439784   7.5575900  85.0371647  13.7094343   8.1954753
  85.0757885  14.5977044   6.9705391  35.7388806  56.4594936   1.5476803
  35.5476928  57.0488834   0.8180951  36.6895056  56.3499689   1.5243229
  28.5409093  77.7453947   5.7765406  27.9633784  77.7364349   5.0132519
  27.9736471  77.5044966   6.5089411  15.0161231  80.8167076  55.4503059
  14.2755651  81.1019611  55.9855032  15.1209986  81.5092659  54.7979307
  55.5728245  14.7109067  44.2430544  55.4712677  15.5856967  44.6181011
  55.1177025  14.1332924  44.8557997  82.2626114   8.8420171  30.8579707
  81.9856548   9.7509414  30.7422853  82.9664612   8.8866252  31.5051413
  18.6735070  48.3255625  44.4496393  19.3703318  48.9780951  44.5194006
  19.1125083  47.4889851  44.6034193  63.2612705  21.5350533  59.5082808
  63.1648016  20.5856538  59.5828915  62.8115320  21.7581844  58.6933088
  72.6045847  61.3747358  42.5718260  72.4058199  60.4403543  42.6322794
  71.7583132  61.7892408  42.4037743  56.3657045  53.2483339  67.9181194
  57.0082283  53.9001274  68.1983995  56.8668747  52.4366999  67.8386974
  32.9259467  24.1375780  18.7222660  33.0625772  24.6497059  19.5193148
  33.3441186  23.2958961  18.9037490  75.5856133  22.2551608  34.4773793
  76.3986921  22.4488330  34.0108776  75.8461905  22.1905470  35.3961611
  86.0521126  75.6587744  43.2477427  86.9684887  75.8004713  43.4852409
  85.7313824  76.5265751  43.0022144  10.2883363  10.6904495  46.5649843
  10.0110686  10.1148164  45.8522415   9.6275765  10.5639184  47.2458792
  65.6629372   9.3463320  54.3137026  66.3978577   9.9306446  54.1274261
  64.9916315   9.5958441  53.6786270  50.5243063  20.0843287   9.9080098
  50.4487276  20.3726697  10.8176136  51.4404583  19.8231471   9.8148769
  47.6850605   5.4451919  29.5973349  48.2810497   6.1941040  29.5847201
  47.2334814   5.5126053  30.4386234  70.0013351  36.2367821  55.1804399
  70.8266592  35.9318304  54.8035097  69.4223785  36.3528585  54.4270658
  16.3445055  71.2005377  57.9810905  15.4994214  71.0133600  58.3897829
  16.9502270  71.2955618  58.7161446  37.9997754  17.3369122  66.1585522
  37.8981495  18.1360328  66.6755724  38.4673476  16.7349052  66.7375135
   7.3459232  40.8880615  10.6836295   7.6603323  40.8485794   9.7804022
   6.4137512  40.6794930  10.6220853  43.9635038   8.9829880  21.7262602
  43.4835052   8.7409049  20.9342837  44.1706610   8.1477815  22.1454835
  49.2092180  55.7593107   4.8361218  48.4426355  56.1418056   5.2630687
  49.9099731  56.3930464   4.9895877  33.4622359  25.2861500  69.2935276
  33.6714911  26.1204362  69.7135401  33.4179020  25.4925013  68.3598852
  49.1048002  77.6578999  46.1633110  49.2558861  77.0847130  45.4117346
  48.7213135  77.0855045  46.8277931  37.5828075  20.2060890  19.4963646
  36.7740464  19.8042881  19.1790426  37.5275111  21.1167312  19.2067063
  10.0242794  63.6465073  63.8316822   9.0960914  63.8344002  63.6924219
  10.0799072  62.6910210  63.8180065  40.8972883  73.4029865  65.5281115
  40.6941700  72.8145885  66.2552738  41.8531275  73.3997822  65.4772329
  79.3269777   0.8160802  45.2207708  78.7518454   0.7216141  45.9800673
  78.9167309   0.2808108  44.5414972  61.4571524  10.7279909  28.3103895
  61.3320875  10.2133954  27.5130296  62.4070597  10.8070374  28.3979082
  66.6058683  28.2861805  30.9479570  66.2501717  28.0030918  30.1055956
  67.5328350  28.0509186  30.9077668  29.7228742  23.0357742  37.5453782
  29.9231768  23.5382819  38.3350587  29.5582938  22.1475768  37.8619981
  28.8702607  62.9539156  27.6802778  29.7012925  62.9615021  28.1552076
  29.1132426  63.1214046  26.7697072  54.5196676  70.3426886  55.7807732
  53.9958715  69.9220848  55.0988960  55.3669977  69.8993301  55.7395887
  21.9751287  39.9053741   3.2937017  22.0449758  40.7360792   3.7641105
  22.0318294  40.1479816   2.3694944  36.2401128  76.1433697  58.3504677
  35.6199384  76.7386818  57.9294968  36.8197227  76.7167330  58.8520050
  37.2007680   4.7837850   8.4810930  38.1145954   4.6689904   8.7418175
  36.8836784   5.5016017   9.0292031  75.6112862   7.3199278  28.8380170
  75.6558752   7.1632457  27.8947806  75.0507450   6.6191059  29.1709924
  24.9341965  27.8124142   5.1487786  24.5151544  26.9618630   5.0176281
  25.3636527  27.7389574   6.0010719   9.3577749   9.3667889  31.1771154
   9.2854035   9.2058325  32.1179056   8.7535912  10.0903296  31.0107374
  33.4253407  64.5175791  62.7142096  32.9951406  64.7229052  63.5442686
  34.3552899  64.6697712  62.8823376  27.5093985  80.1305771  55.9978771
  28.3914423  80.1879978  56.3652134  27.6399875  79.7877026  55.1137877
  50.5472898  63.4951210  20.0090098  49.8057270  63.0136681  20.3757811
  51.2627840  62.8594065  19.9960816  70.6719971  13.8557577  32.9040933
  70.8760691  14.6930933  32.4876118  71.4487314  13.6517274  33.4249449
  19.2981339  22.5207949  23.5797834  20.0307131  22.8447938  24.1037917
  19.1908872  23.1739688  22.8883386  51.8555927   9.8673064  37.2778344
  52.0929575  10.6797528  36.8308210  51.5071487   9.3058795  36.5852880
  73.4281015  60.4654789  16.7141259  72.6922703  60.2259254  17.2775066
  73.0949163  60.3524065  15.8239377  64.2237759  23.1619000  36.2287402
  64.6057415  23.0214286  35.3623676  64.2562246  24.1103292  36.3538909
   4.7168171  59.4264507  47.8818607   4.6196383  60.3603554  47.6958323
   5.6475085  59.2503309  47.7439213   3.0260453   7.2745681   5.7302642
   2.6591969   6.4174145   5.5136037   2.6651520   7.4784029   6.5930730
  65.8305073  20.7702303  40.7380962  64.8946810  20.5830193  40.8116293
  65.9400272  21.0965705  39.8449326  76.6671944  69.1753435  40.4356956
  76.6418314  68.7716675  39.5681477  77.1807003  68.5675240  40.9677649
  59.0686274  61.6287708  53.6942577  58.6164999  60.9405756  54.1823244
  59.5168209  61.1655712  52.9865885  68.3312559   4.7090125  66.1461926
  68.3150959   5.4875362  66.7028522  68.4845066   3.9842629  66.7523956
  32.5549555  45.8763838   2.6478571  33.1874180  46.0477781   1.9501133
  32.1350050  45.0545692   2.3939003  43.9770699  16.4177632  56.3285446
  43.2202530  16.9919717  56.4457989  43.7989616  15.9504068  55.5123997
  30.5601001   5.0920886  21.9504380  31.2290144   4.8196489  21.3222957
  29.7589040   4.6648082  21.6475415  66.4298487   5.3599566  33.5109258
  66.4186668   4.6204552  32.9032707  65.6764793   5.8919322  33.2546711
  47.4426699  23.3419991  45.6941414  47.6766682  22.4304652  45.8690310
  46.8539858  23.5798264  46.4104700  40.9196234  65.4651022  43.0016375
  40.0258303  65.5499792  43.3335352  41.4430618  65.2534819  43.7745953
  29.4991446  52.1690273  22.4230027  29.5011353  52.7585983  21.6689229
  30.2889490  51.6391706  22.3148537  37.9763627  81.3932133  65.0502777
  38.0039287  80.5082035  64.6866417  37.0583916  81.6541100  64.9761868
  55.3152037  58.2634926  41.4482450  55.5160666  58.7246275  40.6338501
  54.3589067  58.2332659  41.4767790  17.3222733  35.3502345  21.3218164
  16.7753518  35.5581164  22.0793748  16.8030250  34.7252798  20.8158064
   7.5195014  27.0072031  16.1383724   7.2511470  27.7727985  16.6463900
   7.5062954  27.3063898  15.2292275  52.5910330  77.8776455  58.9629507
  52.1785450  77.0566320  58.6945820  51.8594122  78.4789753  59.1021109
  58.8171721  62.9025316  66.7358446  59.3870354  62.2708464  66.2971354
  59.1009521  63.7534761  66.4017868  55.1930666   7.2835755  29.4275498
  55.4399872   6.3904667  29.6675873  55.0131321   7.2381461  28.4885120
  29.3935513  64.7495270  32.7170658  30.0107527  64.3342066  32.1147346
  28.7201977  64.0856028  32.8655005  68.6003590  13.0029643  45.7333660
  68.6559343  13.3772528  44.8541307  67.9008675  12.3523533  45.6729364
  10.1420450  24.2890239  64.3674421  10.2216911  23.3394051  64.2773819
  10.1568151  24.4420862  65.3122091  75.3495550  12.3159564  47.1339226
  75.8220959  13.1479287  47.1062994  74.6634007  12.4081671  46.4729261
  19.3751788  41.5965796   1.3986406  20.2839041  41.4479399   1.1371914
  19.0893698  42.3357868   0.8618720  54.7717524  24.4627357  58.7150574
  55.1438999  23.6600947  58.3496809  55.2206564  25.1684260  58.2495308
  15.0718653  64.9434853  50.3986502  15.6550252  64.9474859  51.1576891
  14.8740482  64.0182686  50.2534676  42.3800325  47.5339222  24.6733809
  42.0041847  47.5687027  25.5530167  43.0082035  48.2558680  24.6526098
  37.1097374  40.1041508   6.2686288  36.6647029  40.8949423   5.9639549
  37.7341437  40.4176998   6.9228733  16.7730522  76.1813545  14.2243171
  17.3198998  76.9410038  14.0240157  15.8765495  76.5144062  14.1844547
   9.5867187   2.5863472  25.4223180  10.5035877   2.8531697  25.4885674
   9.1912597   2.8824565  26.2421751  67.9093075  67.5333786   4.5343912
  67.6070404  68.2676125   5.0689638  67.2473097  67.4481297   3.8482967
  23.1999731  65.9237528  60.7470083  22.6285648  66.0769701  61.4995003
  22.6175928  65.9771347  59.9892378  82.2226524  19.3021226  55.7845783
  82.9199123  19.0192807  56.3762331  82.3732567  20.2401876  55.6680393
  77.3310089  11.9227302  42.8984833  77.7113819  11.4854836  43.6603022
  76.4337397  11.5921032  42.8557825  62.5377655  66.1595631  13.9305973
  63.4096003  66.3196135  13.5693312  62.1362972  65.5396366  13.3217013
  39.5565534   3.0572689  63.7343836  40.2665520   2.8484362  63.1273222
  38.8006067   2.5802371  63.3920145   6.8046576  81.6607761  61.7201185
   6.8212360  81.5275574  60.7723808   6.6670144  80.7856274  62.0826244
  20.9698653  72.2662544  53.4675312  21.5865541  72.4978542  52.7730608
  21.3683724  72.6111794  54.2665625  33.0112910  77.9810381  21.9584632
  33.4317851  78.4200907  21.2191057  32.8691840  78.6764479  22.6006818
  28.8943219  52.8221083  44.3262529  29.6911573  52.5131893  43.8951397
  28.1820297  52.4146080  43.8334894  72.8992796  28.2340264  37.9548025
  72.3764181  29.0059352  38.1716013  72.9360723  27.7330899  38.7696290
  44.4410753  68.2086134  66.4078808  43.5937834  68.6510658  66.3572741
  45.0018167  68.6951685  65.8036709  52.3924208   0.2554270  23.6931634
  52.1101427   0.3587386  22.7843857  52.8922987   1.0499477  23.8804913
  36.6456890  53.1337976  25.6498528  36.5228295  52.3328590  25.1403093
  35.7673907  53.5068130  25.7252240   5.5015403  38.0769396  27.4976158
   5.8699125  38.8802338  27.1298528   4.7130400  38.3639765  27.9581690
  36.8223333  22.8133488  16.1339355  36.1736870  22.9554415  15.4445159
  37.4981689  23.4700537  15.9659612  63.5388517   2.1830046  57.6453304
  63.2876158   1.2731737  57.8044510  64.0648222   2.1499984  56.8462706
  33.1971526  67.5837278  36.9223475  32.9598856  66.9501019  36.2452579
  32.3803830  67.7476215  37.3937869  15.6864154  25.5600858  29.1872931
  16.0049653  24.8977876  28.5740089  14.7583020  25.6571770  28.9741898
  50.3866816   2.2049084  55.1306343  51.1097097   2.7298263  55.4740381
  50.6064606   1.3058016  55.3746367  75.6043959  39.9065328   1.4743030
  75.0080156  39.7385097   2.2039120  76.4769268  39.8790383   1.8669501
  61.5780973  49.9859810   3.5146677  61.6224575  50.6153822   2.7948636
  60.9389448  49.3351221   3.2246661  10.4303563  67.3413706  64.1206598
  11.3709223  67.1932173  64.0225935  10.2158725  67.9783058  63.4390879
  52.2803831  61.3532686  69.2548609  52.6223373  61.8070889  68.4845686
  52.6616812  61.8214512  69.9975872  11.3470912  74.0275431  53.9003325
  10.5999231  74.1851473  53.3231544  12.1118486  74.1144228  53.3312702
  62.8685824  34.4576408  70.3487221  62.5986246  34.3758680  71.2634175
  63.5527430  33.7969305  70.2409333  34.7190189  15.7403529  62.3119783
  34.5817232  16.6713786  62.1371222  35.5379224  15.7077479  62.8065157
   4.9870491  43.1533861   0.5232582   5.8712924  42.7869034   0.5171734
   4.9355048  43.6679649  -0.2822110   0.3260333  71.4394569  63.6649513
  -0.0139007  72.2854900  63.9563370   1.2550470  71.4627409  63.8943481
  78.4174776   7.9164022   7.5299793  79.3065691   7.7852339   7.2005230
  77.9969025   8.4687114   6.8709642  10.9865522  58.4917927  59.4400024
  10.6188226  59.1214466  60.0601196  10.3701818  57.7595043  59.4483376
  18.0953062  44.9793673  22.6448059  18.0179679  45.8736801  22.9771638
  17.9547584  44.4254780  23.4127140  28.9162993  69.7257042  51.4001131
  29.6823382  69.9193478  50.8598185  28.9993238  70.3118944  52.1522522
  53.8380289  51.2594461  65.9560728  54.3454456  50.6362486  66.4760590
  52.9287815  51.0961485  66.2067318  67.0498753  76.6112947  41.8387985
  67.6697540  76.1602736  41.2655973  66.3573551  76.9141960  41.2515116
   8.2300985  24.4464231  15.6342185   9.1515476  24.6530867  15.4778445
   7.8652596  25.2478075  16.0095930  60.3750753  75.8758545  39.7808623
  60.5528069  76.7921877  39.5687890  59.5755434  75.9023809  40.3064823
  16.5103495  62.0521641  61.9849634  17.0905685  62.4209642  62.6509714
  16.2040317  61.2282372  62.3638439  61.1261606  71.8307829  62.5064325
  60.9581089  70.9801388  62.9118872  62.0802784  71.8867970  62.4539661
  45.9311676  68.2972193  39.7302461  46.3790417  69.1307974  39.5860720
  45.1261473  68.5343409  40.1906157  65.0648594  46.8987322  12.9579043
  64.7419214  46.0952234  13.3657217  65.9071350  47.0611334  13.3826792
  72.2465849  33.2988405  41.6360950  71.3512945  33.6059284  41.7788792
  72.2420359  32.3939395  41.9481277  58.8459492  10.7123554  58.8993216
  57.9821301  10.3277278  58.7506390  59.4576979   9.9905771  58.7542915
  63.9725208  38.9035439  52.8860712  63.1620264  38.8090897  52.3856640
  63.6838388  38.9998698  53.7936068  25.4555392  51.9838858   0.9753644
  25.3287363  51.8027115   1.9066693  24.8766017  51.3652372   0.5300161
  21.0071135  54.2061186   4.2477530  20.5557156  53.4545946   4.6320483
  21.5354228  54.5597696   4.9633312  79.9272728  71.5002012  41.2670946
  80.8807755  71.4965534  41.3510656  79.6075296  71.3930655  42.1629286
  83.2461548  20.6119895  17.4992871  82.8398132  21.3948822  17.1275306
  84.0607357  20.5083609  17.0074046  53.7584925  71.8470287  52.1136808
  53.5426378  71.7085218  51.1914778  54.6731472  72.1291113  52.1058273
   9.2743077  -0.1182842  37.6614618   9.1082921   0.5152893  38.3594966
  10.1895728   0.0250053  37.4206495  48.7666512  16.4205837  50.6613064
  48.3007336  16.3617706  49.8272228  49.6873999  16.5102923  50.4155207
  39.6026921  12.3060572  70.7722569  39.3135190  11.4825082  70.3793478
  40.5404806  12.3447728  70.5844116  73.0520535  34.6083736  39.4818950
  72.6961708  34.0339327  40.1598310  73.0694866  35.4752564  39.8874092
  72.9150057  14.5400572  50.0718737  73.0628395  15.4788959  49.9580336
  72.6533556  14.2318559  49.2042446  19.7926545  46.1382627  45.6835318
  19.3123722  46.3612461  46.4809275  20.4986668  45.5647516  45.9816360
  35.4178619  32.4374986  61.9972658  36.3194084  32.1778893  61.8073940
  35.1442742  32.9344034  61.2262487  12.4556231  32.3642111   6.6413057
  12.3931611  33.2218885   6.2209255  12.3823583  32.5503707   7.5773662
  80.1604366  52.7655506  35.3125215  80.5196762  52.9579687  34.4464087
  79.2206717  52.6604366  35.1640749  38.1655288  70.8591461  51.6128922
  38.8877726  70.2827597  51.3631439  38.5882044  71.5937710  52.0577621
  51.7309809  58.3596563  46.5595531  52.0872259  58.9802504  45.9237957
  51.9509840  58.7366438  47.4114370  63.1618261   7.3972821  36.3209391
  63.7022400   7.9353440  35.7424307  62.2699308   7.5157523  35.9942579
  58.3984184  49.4307232  60.0104666  58.4113741  50.3753757  60.1644135
  58.9714098  49.3033981  59.2543554  27.5784206  26.4298630  19.6900773
  28.2640147  25.8863688  20.0784135  27.9128861  27.3239541  19.7605443
  71.9113874  63.4053087  16.2776411  72.8083086  63.3964586  16.6118383
  71.8054295  62.5537920  15.8534598   6.5510809  75.7580853  64.0445948
   6.3340914  75.2432919  64.8218536   7.3252833  75.3282928  63.6811113
  39.1076803  76.7444277  63.5491419  39.1039777  75.8500338  63.2081604
  38.6781502  77.2621489  62.8681850  47.6583767  11.7604232  41.8284988
  47.8100872  11.0727310  42.4768019  48.4789705  11.8128884  41.3384914
  56.9802904   0.5351068  63.4711933  56.1894274   0.5011253  64.0093517
  57.6937866   0.3508303  64.0820885  47.0323420   6.2237453  68.9533520
  46.8745661   5.2919227  68.8015413  46.2481833   6.5281266  69.4101715
  53.6116171  66.9994068  55.8909750  52.9854965  66.2777948  55.8319664
  53.7432003  67.2770739  54.9844313  37.8618741  22.1785474  43.2579231
  38.6793971  22.5862956  43.5436344  37.8990889  22.2114873  42.3020124
  58.6931801   7.8748220  45.0979090  59.2353964   8.6360961  45.3045368
  58.1680870   8.1514943  44.3469381  81.8631554  11.6971779  30.7686043
  82.4827480  12.2075951  31.2899637  81.3466167  12.3531592  30.3005099
   6.2582672   1.4626841  67.2864771   6.4132839   0.8699768  66.5510178
   6.7311072   1.0655825  68.0178928  66.7861032  49.1470194  56.4362097
  66.2138462  49.2592049  55.6771517  67.4039555  49.8759556  56.3801718
  52.5157642  73.7487364  43.2648945  51.5809488  73.5436678  43.2823420
  52.6014948  74.4181490  42.5860929  26.8356800   1.2782910  53.1475782
  26.1502910   1.4818090  53.7840128  26.4666677   1.5435335  52.3051357
  72.8736639  51.0182190  21.9091511  73.7713528  51.3497210  21.8870926
  72.7610493  50.6909609  22.8015947   7.9054385  17.7450323   3.9686003
   7.2656721  17.6002979   3.2714757   7.6441091  17.1401250   4.6628818
  21.4094210  58.3073330   2.3911494  20.9669018  57.9700565   3.1700289
  21.0616183  59.1924620   2.2824840  85.6271458  19.8304081  67.0312500
  85.4808998  20.2252674  67.8908634  85.1039410  19.0289509  67.0436811
  13.1376314  65.0103474  64.0843868  12.8269196  64.6681595  64.9225998
  12.6977396  64.4706821  63.4275055  27.1613836  52.1186590  46.8464947
  27.3054647  52.6734591  47.6130962  27.7762985  52.4500322  46.1920452
  12.2808754  26.4141607  67.1582794  12.7046573  26.3891315  68.0161953
  12.9962265  26.2919664  66.5341234  76.6902542  78.5139275  47.6123428
  75.7778311  78.5378170  47.3239851  77.1449709  79.1107893  47.0180178
  64.5082474  74.2140865  57.7502537  64.0151882  74.0609455  56.9442320
  64.2779303  75.1073074  58.0058718   0.7875520  74.1168213  61.6286755
   0.1002210  74.1881990  60.9663200   1.0289348  75.0226974  61.8219423
  22.5909877  72.5646162   2.0724234  22.6446176  72.8508615   2.9842451
  23.4746742  72.2613382   1.8642233   3.3310637  33.3635354  65.1505661
   4.2484504  33.3842921  65.4229689   3.0210701  32.4985695  65.4188347
  33.1300640  64.0649176  68.7783670  32.7043796  64.7766209  68.3003426
  33.2295918  63.3672476  68.1306171   2.9096794   3.6892566  24.9346924
   2.3215799   4.1645676  24.3477917   2.4862257   3.7410265  25.7915688
  27.6551867  55.5735350  28.3928776  27.4490213  56.4941072  28.2307959
  28.0272484  55.5630827  29.2747474  77.7220011  71.1770439  52.1234989
  78.1669474  71.9742727  52.4110413  77.6108074  70.6630611  52.9233027
  58.6866236  24.1044378  49.5613861  58.5086489  24.7712874  48.8981628
  58.0007887  24.2298794  50.2172279  44.6177292  59.7211313  37.5082469
  44.1901398  59.8437738  36.6606879  44.6795511  60.6030512  37.8751659
   0.4921826  68.7089682  19.2342865   0.7632635  67.7928495  19.2932570
   0.1687692  68.8058662  18.3386040   5.0381011  12.4137223  43.6051130
   5.4970622  12.4909747  44.4415426   4.5919350  13.2538092  43.4982443
  66.2985134  78.9184237  55.8432674  66.0833168  78.8701057  54.9118233
  66.7710638  78.1055021  56.0223961  47.7123594  68.8607836  46.3445234
  47.7269220  68.8354588  47.3012781  48.4162426  68.2691574  46.0785294
  19.8802686  13.3210337  65.2097702  20.6255031  13.8756442  65.4405594
  19.5929933  12.9470503  66.0427427  63.4273720  70.6403303  55.6507826
  63.3585072  70.7967710  54.7089672  62.5279474  70.4726601  55.9321213
  73.7157202  16.8296242  59.1583109  73.3848572  16.2015867  59.8004389
  72.9317617  17.2639275  58.8221121  81.2061024   6.7580283  56.7144775
  81.8910122   6.1322564  56.9501543  81.6711426   7.4646950  56.2665987
  71.6227579   8.5628849  60.7496595  71.2920570   8.7778711  59.8775101
  71.3167572   9.2797542  61.3052654   2.5201851  31.4984608  61.3258028
   1.6505870  31.8837166  61.2180614   3.0333233  32.1820951  61.7565727
  20.3019261  55.1743603   1.7496365  20.5505443  54.5933104   1.0307454
  20.7928658  54.8466778   2.5031826  68.5455418  32.0684123  69.9187613
  68.8721466  32.9470921  70.1123762  68.5079432  31.6337395  70.7707453
  62.3667049  49.7704792  61.5074110  61.7339325  50.2578354  62.0349693
  62.5391579  50.3375721  60.7558155  16.8064010  44.0611744  58.5337400
  17.6383245  44.3288326  58.1432390  16.1558580  44.6338415  58.1274414
  11.2264669  32.9791474  61.8452835  10.9365439  32.9470825  62.7569532
  10.4959357  33.3816385  61.3756466  15.1144719  11.4561236  60.7553434
  14.3075812  11.3149714  61.2505531  14.8966432  11.1907685  59.8618269
  11.7254388  59.3193913   3.8630849  11.4075816  58.4370518   4.0545881
  12.4806607  59.4324255   4.4402295   3.5428986  24.2997694   2.0267399
   2.5954652  24.2025685   2.1224146   3.8500279  24.5282912   2.9040545
  73.0405474  44.4601583  53.3909559  73.5891199  44.9056911  52.7453518
  73.2760572  43.5360575  53.3084583   4.6642604   2.7505550  48.2718372
   4.2871541   2.0429271  48.7946033   5.5419201   2.8739262  48.6333942
   7.8488261  50.0735331   4.8615023   8.1884843  49.1816044   4.7885215
   8.4302860  50.5005217   5.4906416   2.9302502  14.6442699  54.5412683
   3.6340109  14.0781081  54.8581457   2.8427398  14.4216800  53.6144304
  85.2116108   5.3787512  52.0916700  84.3089485   5.1759446  51.8460798
  85.2676678   5.1394135  53.0167675  19.1530454  25.4168797  50.3400183
  18.7338150  25.0874567  49.5450640  19.8606145  25.9780407  50.0227261
  79.4854116  38.1172490   7.5089520  80.0658989  38.8175154   7.8071070
  79.1914606  37.6907969   8.3139139  46.7362374  81.5651030  52.7471066
  46.6236180  81.0540090  51.9456482  47.6818198  81.5724204  52.8956223
  10.5314791  29.8653245  54.5245934  11.0592663  30.5983686  54.8413229
   9.6520561  30.0412107  54.8591280  56.8123341  60.1405334   6.0684985
  55.9875154  59.7379303   6.3401818  57.4101448  59.4029760   5.9465897
  17.0932651  74.7354174  59.6605396  16.1685431  74.7446108  59.4134855
  17.3185956  75.6580925  59.7794390  45.8062124  62.7570677  35.5498457
  46.4858961  63.1852770  36.0703230  46.2147141  61.9482422  35.2413559
  53.3883238  21.7540860  47.6877213  53.9657545  22.3202705  47.1756315
  52.5849533  21.7003202  47.1701002  48.2849932  78.2537222  52.4503708
  48.7341499  77.5596523  51.9679165  47.4376154  77.8740644  52.6828527
  61.5369463  77.9488897  28.9323258  60.9928942  78.3966446  29.5802093
  62.4337244  78.1887817  29.1657352  42.6233339  72.1442747  42.2766352
  43.2304621  72.2874784  41.5506077  41.9818449  72.8500271  42.1951771
   7.5397992   7.9066038  48.1199026   8.0373675   7.3388410  47.5314236
   7.3558342   7.3584890  48.8827610   1.7703953  27.1391845  65.7687759
   1.4092687  27.9388857  65.3862858   1.0059886  26.5888929  65.9393406
  81.2156868   4.8624551  22.8637576  80.6523323   4.0930751  22.7806258
  80.6796360   5.5023330  23.3321977  61.2939167  69.4590902  32.3089552
  61.5056515  68.9056969  31.5571856  61.4265966  70.3529501  31.9932961
  57.9369020  65.0042057  12.6515424  58.6685324  65.6172562  12.7231252
  57.8973866  64.5774555  13.5074353  41.5158176   2.5394154  61.9920540
  42.3022747   2.0015663  61.9001818  41.8467617   3.4309015  62.1014166
  81.5814495  11.4064491  57.2194672  81.1609459  10.7797933  56.6306400
  82.4811077  11.0903692  57.3027277  25.3534675  45.7890844   1.6642232
  25.8327174  46.1387110   2.4154313  25.7362914  46.2336540   0.9078929
  69.5480061  15.6802142  58.5444975  70.0342131  16.5029204  58.5991621
  68.7803316  15.8183658  59.0993166  80.8464909  53.5144281  47.5915813
  81.3666439  53.4358835  48.3912706  81.4564037  53.8652945  46.9426394
  36.2449074   2.7883875  24.3208766  35.8282804   2.3236789  23.5951352
  35.8043361   2.4555990  25.1027870  77.3549795  42.5667334  23.9645123
  78.2493639  42.6962614  24.2799973  76.8014097  42.8198528  24.7032404
   0.2523966   3.7187502  16.6246104  -0.0652926   4.3455672  17.2745383
   0.5212086   4.2593813  15.8818519  73.6221409  56.3087320  48.2954073
  73.9229202  56.0473537  49.1657209  73.0989027  55.5675745  47.9902267
  17.3251569  10.8174443  17.6637292  18.1805420  11.2426341  17.6023936
  16.7721951  11.4556932  18.1143999  42.4679995  55.0979424   2.6824656
  41.7848206  55.1023865   2.0120360  42.6456070  54.1701937   2.8372934
  28.0020833  73.5139608  41.8642139  27.3058558  74.1267681  41.6276455
  28.7930250  74.0519381  41.8991423  26.4219522  14.0760052  27.0350385
  27.0436954  14.7778523  27.2275901  26.1448073  14.2420638  26.1340117
  82.0651436  45.0598669  45.1072359  82.7640533  45.7078791  45.1957560
  81.9818783  44.6765995  45.9803915  29.6256280   6.0435027  26.2994957
  29.5291424   5.7235950  25.4025126  29.2826366   6.9367594  26.2734032
  44.1024542  69.5746231  41.1369991  44.1720343  70.5245733  41.2317848
  43.8334751  69.2666292  42.0024633  60.6740904   7.2707582  30.4719424
  60.3467989   7.5877976  29.6301579  60.5907249   6.3187140  30.4181385
  59.8608398  56.0322809   1.2361562  60.1064014  56.6017389   1.9653003
  60.3353643  56.3874435   0.4845452  10.0050104  54.5041084  53.3049345
  10.8229768  54.9318218  53.5583544   9.8899031  54.7344542  52.3830223
  42.7891350  57.0496368  38.3672595  43.2895470  57.3020649  37.5913095
  41.9031191  56.8933582  38.0404830  77.5447702   2.4974494  54.6593142
  77.4653292   2.6819310  53.7234259  77.9999304   3.2602283  55.0160027
  -0.1562987   9.1501713  58.3523560  -0.1977156   8.4760976  59.0306902
   0.4335439   8.7884438  57.6909399  63.2940340  72.3326683  36.6137600
  62.6596737  72.8680086  37.0904469  63.4419060  71.5753126  37.1801329
  42.2803259  58.6445284  19.8098278  42.4196005  58.2006311  20.6463599
  41.9107103  59.4946432  20.0484109   0.8840028  22.2421908  45.2951145
   0.4768068  22.8785419  44.7073412   0.3591288  21.4487004  45.1897144
  34.8550940  80.1490593  66.7874002  34.7439551  79.3821812  66.2254620
  35.8033848  80.2538300  66.8648577  60.4247236  12.0427406  20.2640462
  60.6916332  11.1295378  20.1589131  59.7900295  12.0258164  20.9803605
  77.9660416  79.3236065  56.9487572  78.5307837  78.9286089  56.2844753
  77.2501945  78.6975384  57.0575762  28.3808136  44.4654703   4.6913457
  28.7686324  44.3921328   5.5633831  28.9369965  43.9199352   4.1352132
  22.4973202  18.1292653  49.3798637  21.8165350  18.1996012  48.7106705
  22.9280734  17.2943652  49.1964865  48.2101631  22.7326155  51.8741989
  48.0005217  22.8830266  50.9524298  48.0268192  23.5694623  52.3011684
  85.8641720  33.2721138  56.6147518  86.0872173  33.7406063  57.4191141
  85.4375267  32.4697256  56.9153833  76.5342379  15.3788972  62.3616362
  75.7928133  15.9837174  62.3348951  77.2573900  15.9016442  62.7080679
  19.9588609  54.3515396  46.0346127  20.3374553  54.5307493  45.1739264
  20.7063413  54.3641090  46.6323948   4.3687445  70.2398109  26.0920048
   3.4219661  70.2015734  26.2275791   4.7314131  70.3649759  26.9689536
  66.9513512  18.4779179  49.6823359  67.7484417  18.9831376  49.5222378
  66.2584496  18.9822114  49.2559433  30.0816631  10.8247387  48.2485151
  30.7417178  11.2124157  47.6738310  30.4271793   9.9572694  48.4591055
  75.8528709   9.5547622  21.5462351  75.5106831   9.1369057  20.7559609
  75.2606869  10.2900648  21.7039657  22.3518658   6.6246867  49.5469570
  21.6395879   6.6362631  48.9076138  21.9188571   6.7567444  50.3903437
   6.4064401   8.1182677  43.2805920   6.7435867   7.9276574  42.4052429
   5.6332648   8.6611187  43.1264973  64.9478292  44.6572304  34.1767621
  64.6765518  45.2262878  33.4564734  64.2082644  44.6707726  34.7842908
  82.1500778  43.8187265  41.9702864  81.7303562  43.4186363  42.7318573
  82.9502201  44.2130852  42.3174095  15.3021085  16.8688285  33.5416818
  15.1747429  16.8017638  34.4879985  15.3919303  17.8076494  33.3780384
  49.9540043  64.6282291  39.3306136  49.9987364  64.0632057  38.5592651
  50.3743505  64.1201162  40.0244141  45.6573009  10.7302082   1.7246287
  44.8796272  10.9412742   2.2412622  46.0144997   9.9449444   2.1393611
  52.1628046  60.6464624  48.3602142  52.0345354  60.5406427  49.3028641
  52.8082705  61.3491392  48.2837152  44.4960499  69.3438101  54.5678711
  44.7669888  70.1150513  54.0698671  43.7188482  69.0238142  54.1098309
  10.1801288  20.2861238  30.7414556  10.8796000  19.7368348  31.0953665
   9.9363124  19.8626947  29.9183559  63.3877087  31.0968614  55.6588078
  62.5014019  30.7645798  55.5163956  63.2646656  32.0196962  55.8812141
  64.6256542  78.6131382  18.1709647  65.2020121  77.8493500  18.1451678
  64.3009853  78.6379051  19.0710795  74.7755480  41.0596037  50.8347416
  75.5325460  40.5685568  50.5152750  74.0211964  40.6155586  50.4474306
  75.3902578  29.7245121  24.9764442  76.3261938  29.9147129  25.0402951
  75.2375603  29.5842409  24.0419698  14.6637523  18.4344316  51.3866711
  14.4811976  18.8277781  52.2400093  14.9570358  17.5462794  51.5901470
  33.6776066  48.9172363   5.7084143  34.1476703  48.5324144   4.9686956
  33.1449604  48.2003593   6.0528070  24.0448594   2.3211148  41.5944099
  23.3076191   1.7393894  41.4091969  24.7788978   1.7307891  41.7645073
  18.4741306  46.2653112  48.2463646  18.0944955  47.0994520  48.5226202
  19.0535641  46.0157681  48.9662361  58.6432409  78.9862299  35.9442353
  59.4309425  79.4837475  36.1638546  58.4685612  78.4581137  36.7232180
  53.2636976  74.6798277  27.1223927  53.1611729  73.7336063  27.0204711
  53.4473419  74.8018885  28.0538464   4.4093886   6.6365945  49.5676517
   4.3971133   6.0846043  50.3495646   5.3228068   6.9094759  49.4814253
  66.0926723  15.1578951  61.9197798  66.7823267  14.5603120  61.6308165
  65.6952953  15.4751003  61.1087894  18.1849980  27.8928256  20.0216007
  17.2286689  27.8773046  19.9838305  18.4625947  27.7682495  19.1140485
  85.7364273  78.4948301  42.4864769  85.0135136  78.5166550  41.8594646
  85.5200005  79.1740274  43.1252909  39.3353057  33.0741501  46.4916611
  38.9087725  32.8954601  45.6535864  38.7119579  33.6251879  46.9649792
  14.6426904  27.5289273  47.8873491  14.3665946  27.8440571  47.0267153
  15.4583740  27.9977393  48.0637217  83.9527225  53.9889956  27.9513073
  83.5419369  54.0376425  28.8145089  83.4815311  54.6349669  27.4250698
  34.2551970  46.8295479   0.7537679  33.7803912  47.6001167   0.4423016
  35.1263046  46.9119072   0.3656683   4.5860493  11.3875997  63.3578825
   4.0181923  11.1714184  62.6182652   5.3104389  10.7652187  63.2936049
  83.5011005   8.2541859  49.5746851  82.7588367   7.9284239  49.0656185
  83.4427547   9.2067266  49.5005751  44.2488909   9.8432529  43.0363417
  43.8555717   9.3831891  43.7778759  44.8609400  10.4615927  43.4354401
  11.3907421  15.2074730  65.2629375  12.0651376  14.8018646  65.8078241
  10.8342659  15.6795812  65.8823586  66.9139957  59.1562843  32.1060205
  67.7859020  59.2853498  32.4793196  66.3340187  59.1013002  32.8655195
  74.8453045   4.1710806  60.3310347  75.1383781   4.6405965  61.1119890
  74.4230270   3.3819315  60.6703806  13.3668482   3.0709094  49.5321131
  13.6585736   2.3364764  50.0722361  14.1722095   3.5352671  49.3040800
  76.3951826  18.5409689  48.1466675  76.3134909  18.1863165  47.2613573
  75.7688236  19.2642772  48.1736755  84.2570972  10.9172404  56.8754244
  84.4118595  11.7662072  56.4612579  85.1328373  10.5646873  57.0335436
  30.0640106  16.9159067  33.7700105  29.3684220  17.3871279  34.2286372
  30.6806660  17.5981343  33.5044312  69.8336697  12.8412199   8.4628195
  70.0832129  13.0899906   7.5728333  70.5154324  12.2294271   8.7405676
  51.1933374  21.0803699  43.4280396  50.2534819  20.9046459  43.4729528
  51.2993479  21.6173387  42.6427650  43.6140442  63.3047247  68.5909796
  44.1698551  62.5342846  68.4738541  42.9054308  63.0045509  69.1601896
  66.8173170  11.7133760  59.0125561  67.4854898  11.0294521  58.9676237
  65.9889936  11.2466061  58.9019299  85.2139759  33.9563441  43.6556768
  85.0467014  34.1239405  44.5831251  85.1215076  33.0081224  43.5631561
  26.2874413   6.0344535  35.9395552  25.4641366   6.4047086  36.2578487
  26.2584138   6.1654526  34.9918056  27.1699905   5.3264254  21.2053514
  26.8802071   4.4969779  20.8255172  26.6875982   5.3940272  22.0293427
  51.8836975  36.1254072  22.2564673  51.5843010  35.3664088  22.7569818
  52.7108097  35.8435392  21.8657398   9.2768157   2.2601944  67.6437569
   9.4450408   1.3214919  67.7260351   9.4265687   2.4500857  66.7176104
  58.5869217  65.9711170  46.6152906  58.8909388  65.6131744  47.4493694
  59.1525459  66.7272949  46.4587736   3.6074817   0.5555287  49.3986273
   2.6724842   0.7436411  49.4800234   3.6466441  -0.3773490  49.1878271
  63.7503672  20.9190440  62.5846434  63.1519556  21.1458564  61.8728209
  64.2236090  21.7307305  62.7675104  11.7114091  29.7360730  46.2896156
  11.0763729  30.0631380  45.6524420  11.1804056  29.2918587  46.9506264
  34.2188454  55.3353882   6.4589530  34.1870046  55.9014606   5.6877333
  33.4504914  54.7709560   6.3736510  14.8398995  27.6360202  17.3631835
  14.6201193  26.8454766  16.8702638  14.0615702  28.1883049  17.2895765
   9.6333802  53.3877611  60.1029682  10.2043903  52.7116442  60.4677296
   8.9543223  53.5111618  60.7662058  26.8029046  49.2670298  46.7980003
  27.2933006  50.0780725  46.9319820  27.2781205  48.6124706  47.3098135
   4.6750811  37.8108525  42.0094728   5.3390491  38.4102607  41.6687536
   4.6659049  37.0843291  41.3863277  47.9585123   9.5155913  57.9635477
  47.6783657  10.4163253  57.8009701  48.4523582   9.2732722  57.1801996
  38.1633973  16.4222646  10.4427314  38.0540848  17.2868729  10.0468338
  38.8482022  16.5447354  11.1002088  19.1395986   7.7316552  27.4852920
  18.7861097   7.4302679  28.3222175  19.2393708   8.6774051  27.5940776
  12.7836180  29.5599937  51.5738773  13.5166454  29.8742723  52.1031523
  13.0339563  28.6711693  51.3217831  18.9104056  37.0728374  50.0341129
  18.8657153  37.9641891  50.3801250  19.2793524  37.1747088  49.1567659
   3.0508527  16.1023378   6.2727487   3.1763661  16.0838735   5.3239930
   3.4315443  16.9361556   6.5485269  22.7060628  25.4130793  61.0686588
  22.3678827  26.3082242  61.0927773  22.0406651  24.9184680  60.5902910
  13.4937060  21.2993097  22.5169301  13.5794044  20.7174039  23.2720947
  14.3649518  21.6805601  22.4082494  53.1064844   4.8837149  11.8072808
  53.3698988   4.5558205  10.9474385  53.1857681   4.1262221  12.3870659
   2.5990438  18.9972973  18.9794648   2.3153943  18.8632441  18.0751395
   2.0340699  18.4221470  19.4954467  26.0127521   2.1789528  62.8622293
  25.5980659   3.0296043  62.7184963  26.6246581   2.3294845  63.5827446
  45.3012228  48.1997585  65.9185457  46.1151791  47.7415848  65.7093000
  44.6954060  47.5054979  66.1777973  60.1630545  73.7399673  46.2644434
  60.8894396  74.1468239  46.7367411  59.4132233  74.3073559  46.4434814
  72.6714897  68.4773588  22.1006441  72.3478079  69.3023920  22.4622822
  73.6061335  68.4756136  22.3072195  24.4786167  43.7548399  48.2825422
  24.3926454  42.8200960  48.0951929  24.6378613  44.1566372  47.4284744
  62.2085571  74.8908949  48.1182528  61.9524670  75.7651949  47.8245640
  63.1229973  74.8058844  47.8484297  60.2670431  25.2836680  36.4575672
  59.3264437  25.4261875  36.5633535  60.6080580  25.2619815  37.3516989
  78.5554504  13.2339644  53.3625031  79.2244244  12.7208710  52.9092503
  78.4326887  12.7828658  54.1977739  52.6114273  78.3248901  49.9853706
  51.7067337  78.6363125  50.0133181  52.9347134  78.4477806  50.8779049
  19.3835080  23.9955521  19.7613060  19.3330383  24.3028402  20.6664371
  18.5885048  24.3334603  19.3489695   4.2087930  31.4338183  52.2282934
   4.0917909  30.7498169  51.5689898   3.3670363  31.4755654  52.6820946
  17.3164177  30.7028055  24.6884012  17.2704709  31.3714600  25.3717923
  16.4099371  30.5899215  24.4024301  22.0931649  50.3133583  40.5404234
  22.8510666  50.3909397  39.9609423  21.3393521  50.3161192  39.9505138
   3.6277086   5.0824124  51.8732786   3.2716739   4.2215502  51.6533041
   4.0717077   4.9510309  52.7110338  74.0085411   3.2717633   6.8630362
  73.6524057   4.1545248   6.7623824  74.9284983   3.3545622   6.6119158
  35.3713989  26.7492223  39.9233222  35.2806830  26.2676334  39.1010857
  34.5053196  27.1269631  40.0764561  32.4551368  36.2345386  41.4443302
  31.8900108  35.9714556  42.1707296  32.9858685  35.4593611  41.2608719
   2.1873286  45.0568771  46.5065050   2.9328886  44.5537710  46.1789989
   1.4933372  44.9011278  45.8659172  36.8014765  81.1990547  28.7639594
  36.3291287  80.4656792  29.1580224  36.4592743  81.2525940  27.8716230
  61.1591339  19.4278145  12.2729957  60.6920910  18.8527453  11.6668630
  60.5468369  20.1433873  12.4441218  82.0103741  67.5342417  60.2406597
  81.1831951  67.0719957  60.3760529  82.1820545  67.4483204  59.3029070
  41.9855309  73.8621616  51.2841511  41.0832024  73.5890627  51.1184931
  42.2200727  73.4289122  52.1048307  48.1312418  50.9054041  12.3134792
  48.7471151  51.0658550  11.5985072  48.3193445  50.0101662  12.5952590
  33.2742262  28.5508180  39.1429591  33.6667418  29.4016600  39.3384838
  33.3260679  28.4764290  38.1900644  79.7089434  64.7467136   4.1953930
  78.9629221  64.3806124   3.7203580  79.3653679  64.9417639   5.0672561
  17.5654554  32.8636813  51.7700386  17.2730649  33.7751293  51.7697144
  18.0585766  32.7706265  52.5851488  79.9880934  39.9299240  45.8063507
  80.8866978  39.8014498  46.1100340  79.4448853  39.6880436  46.5564489
   9.3309760  12.2561169  61.8128872   8.8629878  11.9249678  61.0463619
   8.9386535  13.1128073  61.9814014   0.7789633  26.4028454   8.3310384
   0.5603473  26.5670919   7.4137259   0.2043975  25.6819749   8.5888231
  13.3257604   8.6633193  43.0973434  13.2492530   8.6778212  44.0513706
  13.0282784   9.5298183  42.8200054  36.8738794  60.6783152  57.8612566
  37.7371597  60.5861616  57.4581623  36.8355942  61.5936041  58.1387711
  66.7243147   9.5924640  20.2650237  67.1986818   9.0767056  19.6129501
  65.8330822   9.6522295  19.9209893  79.6835375  71.1196852  27.3187900
  79.5756435  70.8902979  26.3957667  80.0708961  71.9948864  27.3043895
  53.3197784  18.4911513  49.1276217  53.6828613  19.1584885  48.5453320
  53.5270500  18.8033676  50.0084114  78.5467720  18.6319709  62.6081896
  78.2862663  17.7118206  62.5670528  79.3621016  18.6278749  63.1096411
  34.9551415  31.0895109  39.5273352  35.4422593  31.3841748  40.2968311
  35.3587651  30.2535176  39.2940211   8.8264978  28.8895535  64.5666838
   9.6305913  28.8972449  64.0474463   8.4495419  28.0234742  64.4116354
  70.4685926   8.4609103   6.2975645  69.6965122   8.9059979   5.9482455
  70.7043171   7.8247595   5.6223035  83.7776375  48.1448269  38.5521412
  83.1347370  47.7045012  39.1080427  84.6246052  47.8967333  38.9227295
  18.1750047  23.2823610  36.9848943  17.3295796  22.8468227  37.0934916
  18.3441269  23.2457256  36.0434675  18.2512879  48.3380938  22.7204728
  18.7349415  48.2564592  21.8984938  17.3789334  48.6310291  22.4569988
  41.4119864   5.4601520  23.9254594  41.7337513   5.9810632  23.1896949
  41.5512514   4.5524785  23.6553383  85.1730347  24.9617910  56.3645744
  85.3752518  24.3198943  55.6839085  85.0584984  25.7854772  55.8905983
  29.1027951  39.6533704  27.7099323  29.2051601  39.9218845  28.6229801
  28.1875920  39.8449087  27.5051188  77.5498104  72.2852755  28.8210082
  78.0646276  71.7603064  28.2081413  77.7547455  73.1915379  28.5909510
   1.2409171  36.2985826  45.8859205   1.2794654  36.4887404  46.8232489
   2.1539244  36.3207412  45.5992889  30.5694628  20.4080343  46.4458799
  30.8893371  20.3666067  47.3470974  30.9269047  21.2268066  46.1022568
  32.4315357   1.0881693  13.4924543  32.9216385   1.6669413  12.9084551
  32.2261786   1.6327444  14.2523873  14.4515228  40.1886034  62.8025341
  14.8153055  39.7579789  62.0289326  13.8795722  39.5299411  63.1965780
  34.7106624  25.7436013  37.2449255  34.9430966  26.4269853  36.6162825
  35.1432300  24.9564910  36.9139051  40.6333065  21.9087434  68.0774307
  40.3667021  21.9683647  68.9948177  39.9630904  22.3986173  67.6009130
   8.5517281  71.9972372  31.1697483   9.1202104  71.7874193  31.9107175
   9.1406322  72.0220613  30.4155540   6.5063781  34.7088575  54.9666929
   6.3894105  33.7730932  54.8026943   7.2297549  34.9638009  54.3940115
  13.7089062  29.5526814  64.5714235  14.0916538  30.3094220  64.1274881
  13.5885632  29.8413157  65.4760981  28.2390976  23.0904388  44.9721766
  27.2950935  23.0851269  44.8138762  28.3902097  23.8792992  45.4928493
  20.5344701  33.2866764  51.5003586  21.1945438  33.0461407  52.1504974
  20.1547718  32.4524117  51.2245703  82.3541069  44.8615456  50.2188492
  81.4349174  44.9512291  50.4704189  82.8200245  45.4690886  50.7933426
  25.6072235  46.3301134  29.8320937  24.9746990  46.6517735  29.1896939
  25.8251786  45.4475355  29.5324469  75.8056164  53.9809084  48.0371284
  75.9738731  53.2788515  47.4086094  76.6141844  54.0463638  48.5452318
  19.0195429  49.6821690  70.4332685  18.1250286  49.7744942  70.1053143
  19.4720852  49.1789770  69.7563362  10.1802218  18.4642553  58.8204956
  11.0779524  18.7848651  58.9072227  10.1561594  17.6715696  59.3565035
  23.1732321  45.4234743  56.1662197  23.3030510  44.6728230  56.7457914
  24.0372229  45.8308792  56.1047840  48.7503576  29.2303157  15.9810388
  48.6210632  29.6825433  16.8147075  48.0436850  29.5526147  15.4216027
  54.3734598  77.7908039  41.1727810  54.8485518  78.5310411  41.5503645
  54.6746922  77.0324898  41.6732359   1.0588560  34.7452331  28.7639689
   0.1296473  34.8312640  28.5508919   1.1587178  33.8329816  29.0360999
  77.3663855  14.3965292   7.4060667  76.5876055  14.1342878   6.9151866
  77.7970552  15.0416553   6.8452054  17.7997220  38.1184292  46.2508297
  17.7657712  38.9849162  46.6561460  18.0107784  38.2912874  45.3333282
  52.7715874  37.1449566   4.8400399  53.2796049  37.3819280   5.6159216
  51.8672037  37.1001744   5.1503903  21.8239069  27.3379111  53.6353493
  21.9494963  27.0424843  52.7335835  21.1686730  26.7395687  53.9943552
  83.9979839  32.3464775  21.9422078  83.0970573  32.6695824  21.9291997
  84.1477203  32.0187378  21.0554171  59.3915176  76.3169289  30.5699539
  59.7928381  77.0280695  31.0694075  59.9190235  76.2562037  29.7735357
  28.7548470  18.1514347  31.1405873  28.8455033  18.0879307  32.0913672
  28.4898520  19.0580153  30.9852767  55.1811171  44.2846632   1.5768631
  54.3518448  44.4782925   1.1397815  55.0329256  43.4441376   2.0102021
   1.6659312  19.7438693  27.2094512   1.6329572  19.0393913  26.5622616
   1.8332267  20.5337691  26.6953492  70.6559038  75.9638453  29.1936970
  71.3596964  76.4331484  28.7457371  70.9919643  75.0740576  29.3012834
  12.5053573  38.8574386  54.8877287  12.7205813  39.7474098  55.1667643
  12.7337182  38.3092356  55.6384373  10.1149893  31.3956928  44.8370123
   9.7483927  32.2202849  45.1562119   9.6782583  31.2482381  43.9981127
   9.4043398  57.2621393   5.1613569  10.2016020  56.7374516   5.2342236
   8.9989948  57.2033119   6.0264963  22.4973226  48.5697985  25.9041572
  21.6235733  48.2857037  25.6356716  22.9013538  48.8946152  25.0994921
  50.9091902  22.7767658  51.8761492  50.0201035  22.4221373  51.8756676
  50.8083916  23.6755252  52.1896791   1.1682361  52.1143341  32.2059155
   0.3857723  52.4738789  31.7879343   1.3265795  52.6905632  32.9536581
  27.5735855  38.0283475  31.9134974  27.0196605  38.5900402  32.4556255
  28.1255960  37.5600839  32.5397921  58.1281471  61.7734909   8.0250448
  57.7468157  61.1413145   7.4158072  58.5171080  61.2363434   8.7152719
  16.7774951  37.1950841  60.8894968  16.1425412  37.8630853  60.6309605
  16.6223788  37.0666075  61.8252659  12.1721518  28.2409453  36.8619061
  11.7946351  27.9925489  36.0180974  13.0731130  28.4909153  36.6569328
  14.8259962  72.8095436  55.5986309  15.1513386  72.0308542  56.0503244
  13.9352775  72.9239845  55.9299231  27.1553469  51.4279032  42.7361012
  27.3333430  50.5937290  42.3017025  26.3455343  51.7401457  42.3324442
  45.5020523  19.0890169  52.0508814  46.3756657  19.4741964  51.9825268
  44.9388790  19.6830845  51.5547466  19.9511564  79.6893740  36.2695861
  20.4670906  79.2100239  36.9178677  19.8109877  80.5501938  36.6640043
  77.2667027  24.1372895  61.6946173  77.9462671  24.3970346  61.0725546
  76.6396046  24.8603177  61.6800070   9.3698376   5.5754894  19.8442721
   8.5122371   5.8108008  19.4901776   9.9960089   5.9875232  19.2489827
  10.6723785   8.9697909  35.6585979  10.5971766   9.4880164  34.8573375
   9.7819829   8.6630672  35.8299136  25.9544992   8.2587326  29.4887877
  25.8295894   7.3437238  29.7405553  25.2101874   8.7179446  29.8778296
  46.6441298   4.8534334   3.7766507  47.1102762   5.4593801   3.2006562
  47.3253298   4.4870648   4.3405417  40.6685209  36.9196701  34.4900846
  39.8832703  37.3589468  34.1635180  40.3426075  36.3013005  35.1440167
  26.5006471  16.1630976  68.5433006  26.9335341  16.9607246  68.8476562
  25.5672979  16.3342524  68.6689949   9.5942205  43.2236385  63.9734173
   8.6913478  43.2562351  64.2896318   9.5368683  43.4934616  63.0568266
  84.7916031  31.3369322  19.7907209  84.9775982  30.5223656  19.3236864
  85.1908207  32.0190978  19.2508137  78.8432360  13.0448973  33.9509177
  78.3347273  13.5464394  33.3136511  78.9324760  12.1772611  33.5566139
  65.2585411  76.8568993  60.1016998  64.7054482  76.9728851  60.8742714
  64.6877861  77.0721149  59.3640327  12.8185463   8.5764462  45.8177471
  12.9489541   9.3026793  46.4275074  12.1551657   8.0281323  46.2366819
  18.2813632  17.9964507   3.4245512  17.9632831  18.8764060   3.2227197
  17.5627232  17.4177277   3.1698599  21.1395240  11.0802472  39.9382329
  20.3012943  10.6822491  39.7032905  21.7142153  10.8824456  39.1987491
  17.1951234  27.5309706  29.8499942  16.5182614  26.9062519  29.5895791
  16.7115629  28.3202553  30.0937748  58.2196760  11.1539733  48.2074690
  58.8598824  11.4066756  48.8726807  57.4331427  11.6517353  48.4307003
  29.2504311  40.4470396  61.6072369  30.2039695  40.4376602  61.6903543
  29.0925908  40.4834700  60.6638432  48.5931063  23.9588332  64.5496178
  48.6319876  23.8845134  65.5031395  49.1235924  23.2287145  64.2306471
  29.2091703  26.7404294  55.7519197  29.3994069  27.6220274  55.4312515
  28.4405780  26.4645767  55.2525139  27.6909876  34.0621376  10.1769030
  27.8071666  34.0851259   9.2270577  27.9373598  33.1715989  10.4268503
  19.5304322  15.7547331  47.3261642  19.2402983  15.7646763  48.2382822
  20.2166009  16.4208984  47.2858143  32.5093961  16.6814005  70.1614761
  32.9158950  16.5538752  69.3043137  33.0484843  17.3492634  70.5852365
  62.2597408  77.6726866  68.3443928  63.1203651  77.8885269  68.7035084
  61.8199205  77.1945763  69.0473890  23.1306005   9.0729398  48.5751486
  23.7506747   9.0185815  47.8479719  23.0348372   8.1694108  48.8763094
  30.7467437   0.4384425  68.1154871  30.3620934  -0.1945071  68.7218332
  30.8072042   1.2486850  68.6215353  71.4779758   5.3457302  11.4788830
  70.8671188   4.6300429  11.3031542  72.2456264   5.1420474  10.9446001
   0.3896298  53.2665253  59.6875906   1.1328378  53.8691664  59.6612072
   0.4321211  52.8718281  60.5585909  17.7149332  63.4644556  47.3993778
  17.4389195  62.6659727  47.8493500  18.5261190  63.7190104  47.8391647
   2.6741901  43.0789423  62.4315786   1.8675430  43.4249973  62.8134155
   2.8545159  43.6557961  61.6893148  34.5712066  75.4187822  53.0608702
  35.2063560  76.1328173  53.1153393  34.7170162  74.9072933  53.8567019
  40.8427143  46.5478230  26.8594718  40.5693150  47.1607590  27.5419664
  41.7991209  46.5838480  26.8743277   0.9727050  10.5644131  18.5113394
   1.7815363  10.6087184  18.0013776   1.2570235  10.3126371  19.3899763
   1.5616879  33.8157344  63.1162405   1.4287883  34.7047997  62.7874041
   2.2508571  33.9043832  63.7745857  16.2239635  38.3139515  42.5229692
  16.1735797  38.7574100  41.6761923  17.1108675  38.4935713  42.8350115
  24.2612457  49.2387009   4.5213768  23.4867215  48.6932039   4.3843451
  24.7959399  48.7438345   5.1422173  66.1492729  24.6902609  66.0446787
  67.0078182  24.8007989  65.6361198  66.3441563  24.4626093  66.9537592
  38.2584929  42.0010757  51.6721010  38.0209303  42.6350689  50.9954596
  39.0688324  42.3446417  52.0483303   8.1465179  42.7309847  56.8267202
   8.8330531  43.0503368  57.4123096   8.2395279  41.7785025  56.8456078
  84.2850590  25.3410029  60.7114172  83.6175251  25.3685737  61.3968945
  84.9837971  25.9098506  61.0345316  16.1629415  41.8494368  22.6389074
  16.6184497  41.0082960  22.6739454  16.4143407  42.2919130  23.4496140
  -0.0860373  36.7891383  15.3166509  -0.4733626  35.9160066  15.3786719
   0.8575853  36.6367221  15.3674889  38.7256885  47.4297190  34.8696184
  37.9013634  46.9479418  34.9375081  39.3878913  46.7528391  34.7297645
  54.6045303   6.5905291  26.8790269  53.7006378   6.8810415  26.7572951
  55.0915766   7.0227915  26.1774826  65.1262093  32.1841741  61.4688301
  65.9111977  32.4026346  61.9711304  64.5091105  31.8524790  62.1210575
  18.5925150  59.2761278  47.3325682  19.2379987  58.6028337  47.1174908
  19.0144300  59.8047590  48.0098963  29.2859173  76.3414717  63.3070755
  28.8169789  75.5836391  62.9577684  28.6951685  77.0792770  63.1557798
  23.5404277  40.3513765  50.1936340  23.6693692  41.0315132  50.8547068
  22.6975250  39.9567366  50.4172611  12.5452161  21.2056112  37.7955222
  12.1414256  21.2292337  38.6630630  13.0514300  22.0164156  37.7447915
   6.2474966  72.0849180   1.6431585   5.5976230  71.4169931   1.8617384
   7.0469785  71.7937946   2.0816866  13.5711801  70.1842165  63.6836672
  14.1663468  70.6156492  63.0705786  13.5374248  69.2753458  63.3852625
  49.6153450  23.8611746  55.0706053  48.6720610  23.7034869  55.0308943
  49.8898745  23.9035153  54.1545963   4.2206487  33.0331540  41.9312668
   5.0111198  33.5252404  41.7093706   4.5454046  32.2192073  42.3163033
   8.9182407  50.2937269  65.8420324   8.3828300  50.4141521  65.0577736
   9.8039746  50.1520395  65.5079174  10.5244923  52.6810026  32.5525665
  11.0728931  52.0391607  33.0037045   9.9106067  52.1540880  32.0409656
  54.7747517  58.7261200   7.4590594  54.8385191  59.3537807   8.1789279
  55.1483107  57.9184532   7.8117055  29.9703860   0.8695862  34.7097445
  30.9160376   0.9388737  34.5787001  29.7527695   1.6076368  35.2790904
   3.5858238  80.4284954  45.4694557   4.1128576  81.0291576  45.9964085
   3.2736182  79.7732735  46.0935116  28.9233184  48.7505245   5.0610644
  29.5764971  48.1116104   4.7758001  28.5588050  49.0998030   4.2478192
  14.4115710   3.5380077  53.1091881  14.5337474   4.4017476  52.7151585
  13.4818912   3.5070762  53.3349562  80.3646755   4.1464365  65.1173115
  79.6635056   4.6059811  65.5792761  80.1228523   3.2219976  65.1736069
  33.5831952  19.6672392  62.4172497  32.8120923  19.9780774  62.8916025
  34.0131903  19.0669203  63.0263090  11.7791212  47.4652576  56.7726898
  11.3387692  46.6594744  56.5024519  11.7851770  48.0103445  55.9858799
  51.4826107   9.4913405  18.1228924  51.2269497   9.2967367  17.2212279
  51.1652088   8.7431937  18.6286235   2.5629529   1.0968611  23.4979939
   2.8983426   1.5067852  24.2953062   1.6342071   1.3279815  23.4823036
  17.5995910  19.6348476  39.0328503  17.4076641  19.0608692  39.7744322
  18.4878063  19.9509871  39.1982675   1.5658107  54.7314692  22.2585440
   2.4414958  54.7706842  21.8740058   1.7186365  54.5342064  23.1826448
  46.6015816  25.0691676  52.2627640  45.8828497  25.6196666  51.9519520
  47.3113060  25.6840730  52.4482822  85.2308273  56.2039375  39.6312785
  84.3168736  56.4065552  39.4316173  85.6753635  57.0512247  39.6044827
  11.9225562  33.3030319  30.3921151  11.6178775  34.1806555  30.1615119
  11.2183309  32.7218437  30.1048589   1.7464980  40.2742577  52.8111601
   1.3488428  41.1350060  52.9423618   2.6866084  40.4489088  52.7673244
  13.3689308  18.9349425  47.2324944  14.1742110  18.8858664  47.7476168
  12.8028750  18.2606006  47.6080942   8.8043743  70.8323288  19.5519745
   7.9651749  70.4205608  19.3460071   8.8561487  70.8056736  20.5074024
  21.4784145   9.3319982  21.4419341  20.7651067   8.6974478  21.3728714
  21.9637275   9.0628624  22.2218513  82.2898674  34.0982342  36.9261360
  81.4022350  34.2272878  37.2603369  82.7465343  33.6384201  37.6305938
  18.5043287  19.7560012  45.7980585  17.8241014  20.2198315  45.3098154
  19.1931927  20.4079318  45.9272194  34.9369645  45.2432108  68.0528879
  35.2154040  46.1062765  67.7465820  34.6281552  45.3942537  68.9462280
  79.9223232  30.5073953   1.4010023  79.6630383  31.4058089   1.1964194
  79.3441582  30.2487779   2.1186873  81.8658638  10.2650595  34.6079230
  82.2307777  11.1050546  34.8862624  81.1964798  10.4963112  33.9639640
  86.1654663  60.7748270  45.7713318  85.8671188  60.4387283  44.9261951
  86.3939762  61.6881800  45.5987072  73.1782532  72.9750252  63.6244249
  73.9746809  72.8372192  63.1116486  73.3637142  72.5656939  64.4695807
  51.4601803  76.4541817  62.0218134  51.8912458  77.2382927  62.3618031
  51.4357185  75.8525944  62.7659416  79.9067593  47.4602079  62.2302675
  79.6632290  46.8002176  61.5811634  79.9132490  46.9869280  63.0622482
  29.4464493   6.6010624  59.9808407  29.8996139   5.7584441  59.9513960
  29.3558717   6.8565118  59.0628147   6.1846823   5.2977830  59.0626097
   6.5234524   4.4040531  59.0105200   5.4030919   5.2261049  59.6105242
  15.0231755   6.0289109  31.0495639  14.2253470   6.3372207  30.6198573
  15.1316845   6.6125935  31.8004131  37.0308590  18.9494324  39.4181061
  36.3602400  18.2959366  39.6167111  36.7886353  19.7095692  39.9470210
   6.9872600  16.9077623  31.6512084   7.4683976  17.2597885  32.4000835
   7.5781929  16.2578309  31.2709212   4.7709554  24.7274208  44.2026567
   5.3656906  25.3407526  44.6343327   4.3857735  24.2228746  44.9191046
   6.9321191   9.2661077  25.6267786   6.5174532   9.0089285  26.4502740
   7.6414263   8.6343890  25.5082607  24.2190576  14.9009109  36.5128469
  23.8737035  14.6710241  35.6502247  24.1656828  14.0886533  37.0164537
  62.0221186   2.8939572   0.9791324  61.1627197   3.2354507   0.7320557
  62.5440693   2.9574370   0.1792765  74.4952297  58.2845259  37.3151445
  74.3089342  59.2227077  37.3517632  75.2931499  58.2190800  36.7904830
   7.9053468  59.2165804   2.0951267   7.5182360  59.1469431   1.2224708
   7.1654558  59.4106245   2.6705745  82.6221943  44.2244864  24.9429941
  83.4986115  43.8842344  25.1229000  82.0365143  43.4930325  25.1384187
  83.2426834  79.5695019  55.5458784  83.0859089  80.4361343  55.9208488
  84.0717602  79.2876816  55.9324551  26.5234065  69.3539238   0.0976267
  25.8412433  69.0710592   0.7066221  27.3362494  69.0187073   0.4759726
  16.6414213   8.9597923  55.6739712  16.3990295   9.7366953  56.1778545
  16.7242789   9.2744094  54.7737598  53.1868362  80.4865265  66.7654228
  53.5864973  81.0565567  66.1084747  53.3182240  79.6011782  66.4261293
  10.5611920  78.5267973  11.9161129  10.7893205  77.6808548  11.5306628
  10.0337255  78.3058167  12.6836944  32.0557308  18.9536786  33.1303167
  31.8710613  19.2782056  32.2489500  32.9300284  19.2880630  33.3303738
  19.3799746  46.2636518  67.4102402  19.9992561  46.9324589  67.7025080
  19.3069565  45.6639957  68.1527424   7.3418427  54.5628405  61.8893003
   6.8191028  54.4635344  62.6849842   6.7035198  54.7749615  61.2082863
  18.0631566  36.3228583  32.0283699  18.7788832  36.0539365  32.6042604
  17.3019183  36.3849306  32.6053405  10.9365976  10.9008181  28.8860321
  10.0159681  10.7882094  29.1226625  11.4125764  10.7680273  29.7058153
  78.5290146  28.0047917  69.8296261  78.0837536  28.0304384  70.6765747
  78.2057476  28.7770653  69.3655968  25.3422165  81.4630604  26.5173936
  24.6326971  80.9046555  26.8351912  25.2506804  82.2743225  27.0170999
  15.8642948  67.8114176  41.6797972  16.3561380  68.6192369  41.8272829
  16.2019396  67.4734783  40.8503246   2.3033153  28.5085034   9.3181556
   1.7149298  29.2000794   9.0152401   1.7995629  27.7016234   9.2113370
  21.2972736  33.7834811  39.6695518  21.4255190  34.4301486  40.3635311
  21.6833186  32.9794669  40.0170565   2.1759923  30.9640813  66.6305447
   2.3139021  31.4214659  67.4600077   2.5722462  30.1028991  66.7631388
  48.7676811  80.6177235   6.3042140  48.6706686  81.2402439   7.0248312
  48.0886221  79.9616718   6.4613980  27.5882912  78.3785295  42.7042007
  26.7924857  77.9582024  42.3782492  27.4914742  79.2983770  42.4577522
  69.0718222  16.4241326  30.9978127  68.3762550  16.7574620  31.5646505
  68.6413574  15.7659447  30.4521751  19.5502591  31.1716461  57.7800655
  19.2091930  31.2738991  58.6685753  19.4656467  30.2358842  57.5972509
  48.1574106  17.9763544  41.7148685  47.8879023  18.0683804  40.8010149
  47.8523445  17.1050882  41.9679737  85.6817818  76.0202599  55.2895117
  85.3353596  76.6883707  55.8809948  84.9347878  75.7718945  54.7449541
  12.0083153  16.6628826  53.8435698  11.4519119  16.3035011  53.1525612
  11.4876807  16.5723062  54.6416712  12.9945135  34.6211720  20.2475238
  13.7444103  34.0636730  20.4550862  13.1701481  35.4407501  20.7097721
  12.9748857  47.7431059  52.6978588  12.6781154  46.8712378  52.9586267
  12.9630506  47.7238798  51.7409277  82.8127652  51.9093714   0.4267161
  83.6181527  52.2723208   0.0581353  83.0576545  51.0315393   0.7194130
  13.1763244  36.9868422  24.7892952  14.1015697  37.2133231  24.6951699
  13.1655729  36.2920976  25.4476619  33.0568457  58.8132572  20.7693529
  33.0529809  58.2390022  20.0035548  32.2931743  58.5398769  21.2775850
   4.3126032  19.5705581  42.4001455   4.2440870  18.7027252  42.0021439
   3.6172068  20.0802922  41.9844198   8.2098496  14.9068058  43.9414978
   8.0566865  15.6189561  44.5624781   8.7670821  14.2904007  44.4166470
  27.8373575  24.3966722  57.9668570  28.7943769  24.4103122  57.9793978
  27.5970316  25.0524950  57.3123503  59.0445471  25.4768014  25.0446844
  59.3002272  26.3992214  25.0446725  59.7666407  25.0281143  25.4845643
  43.3557081  64.4738626  31.6646504  44.0498781  63.8545370  31.8900371
  42.5879908  64.1566277  32.1402574  12.0132422  22.1720958  51.8985653
  11.0955513  22.1390080  51.6284180  12.0187724  21.7883086  52.7754402
  85.9291077  13.2630682  52.9862022  85.7182407  14.1788578  53.1681204
  86.5983582  13.3025455  52.3029947  26.5150404  24.9019051  25.1281404
  27.0173383  24.3716216  25.7467937  25.7071829  25.1143241  25.5955553
  12.4469912  32.7227974  46.8173742  13.3894610  32.8739953  46.7458153
  12.3731184  31.8628716  47.2312593   6.4431971  20.0811005  40.2891493
   5.6455195  20.0902200  40.8181667   6.6509837  19.1525388  40.1850939
  82.2424507  36.6423321  13.3500302  83.1092262  36.5653849  12.9512715
  82.2846889  37.4507737  13.8607824  25.6818438  37.5731468  23.6641383
  26.0276198  37.0311666  22.9549646  26.4296532  38.0968547  23.9517903
  18.9812398  42.9799080  63.7205553  18.1135201  42.6072550  63.5642815
  18.8073504  43.8351250  64.1137409  76.2395191  11.5359330  18.1771612
  75.5248642  11.8511736  18.7304449  76.3489580  10.6183994  18.4269333
  13.4605467  26.9892836  42.1813011  13.7982082  27.1236086  41.2957668
  12.7483344  26.3589954  42.0730162  35.2662230   5.9742653  30.5963087
  34.5707512   5.4167259  30.2474570  35.2380490   5.8288997  31.5419888
  85.6219101  21.3163853  59.1040421  84.8996925  21.9208622  58.9330101
  86.1800957  21.7805433  59.7279072  63.5996389  72.4379492   6.9352072
  64.2807007  73.0595398   7.1921307  63.3240223  72.0314980   7.7568316
  15.7295227  38.2549524  24.6618652  16.6044891  37.8901672  24.5292115
  15.8267295  38.8447165  25.4095030  24.4061041  51.1327553  38.7470245
  23.9368725  51.9483566  38.5713887  24.0449142  50.5083609  38.1178093
  20.7991147  75.9019661   8.2161242  20.9841704  74.9704599   8.0966169
  21.6277885  76.2739801   8.5180146  26.3753939  46.4096880  40.5521202
  26.1503601  47.1474981  39.9853444  26.9181633  45.8432245  40.0037098
  83.5420132  33.5100746  39.3405032  83.2667637  34.1383123  40.0081778
  83.1911945  32.6718020  39.6412587  84.5227337  67.9242849  42.5865078
  84.5760536  68.6132097  41.9241142  84.1245556  67.1832418  42.1298409
  58.5014439  76.7596197  19.3631685  58.5898304  77.3973560  20.0714850
  59.3639851  76.7411041  18.9485419   1.6023506  17.4116981  44.4707251
   1.1604616  17.1451795  45.2769136   2.4642053  16.9984221  44.5221281
  81.6900349  21.7767787  40.9376287  81.6845036  21.7225242  41.8932724
  80.8258820  21.4599705  40.6747437   3.9800456  62.9762888  19.3409538
   3.6490068  63.4500360  20.1039815   3.6230138  63.4514046  18.5906041
  51.7076445  19.0149283   2.8903869  51.1076212  19.6535397   2.5051802
  51.9928598  18.4779716   2.1510896  17.1340179  47.4845695  39.6937752
  16.9205379  46.5854549  39.4442654  16.6393828  48.0273724  39.0798259
  40.9429789  42.4862051  30.2105403  40.6011820  43.3620977  30.3900218
  41.1030865  42.1096230  31.0758638  26.8208766  21.8946075  61.8382311
  26.0393286  21.9251728  62.3900318  27.0920157  22.8089237  61.7561388
  24.9689174  19.8672271   6.3026106  24.2137027  20.4503036   6.2257802
  25.4003382  19.9204504   5.4498059  70.7489777  74.8645210  34.8394799
  70.7501459  74.7542810  35.7903099  71.6570807  75.0745487  34.6215987
  33.3260345  36.5596199  48.0679750  34.2645383  36.3922834  48.1542397
  33.2734203  37.4195695  47.6508999  82.7300072   2.7204788   1.0483892
  83.0217266   2.1765149   0.3167920  82.3753834   3.5076541   0.6350695
   2.5342658  39.6169472  66.5832043   1.9285050  39.5167470  65.8488703
   1.9856219  39.9200606  67.3066282  59.1077566  61.7486477   4.8821354
  58.9268541  62.6841736   4.9732369  58.2434607  61.3373899   4.8725370
  27.1300483  59.3675852  57.1361446  26.4731431  59.5056295  56.4537573
  27.1195936  60.1776028  57.6460409  14.4830894  58.6364651  33.5791135
  14.5943451  57.9990435  34.2844868  15.1872349  58.4364939  32.9623270
  39.1651726  68.4003830   0.1730927  39.9183416  67.9949331   0.6027197
  39.0753961  67.9242945  -0.6524448  16.6237974  63.0050802  59.4668818
  16.5209937  62.8765535  60.4098272  16.5477860  62.1260786  59.0956497
  26.9936061  28.0109453  31.9875431  26.6903210  27.1598721  32.3036551
  26.2460256  28.3688974  31.5087676  32.3335648  48.1199408  34.6207690
  32.2187710  47.1953678  34.4011736  32.5248098  48.1213999  35.5586696
  27.1506619  56.9887495  18.5269630  26.8834066  56.0700846  18.4975886
  26.8874097  57.3420668  17.6771998  38.6248446  34.5609951  31.6522241
  39.3494487  34.6003962  32.2764254  38.9705920  34.9680710  30.8578801
  58.0433273  13.2503319  42.5257492  57.5823545  12.7635956  43.2089996
  57.5515413  14.0670717  42.4402428  10.5570424  10.9124029  12.7979326
  11.4673102  11.1891258  12.6927257  10.1118720  11.2533510  12.0221686
  86.5665458  32.6241255  10.4850638  85.6248357  32.7727818  10.5705941
  86.6610933  32.1591449   9.6537483  30.1630735  17.9073787  39.4057751
  30.3852582  18.7235177  39.8538637  29.2156649  17.9547191  39.2776847
  25.3942871  23.4492254  44.5775318  24.7698951  24.0979743  44.2527390
  24.8520708  22.7934837  45.0159788  24.7674346  60.3687477  49.1940212
  24.7579765  61.2936401  49.4404221  25.0898194  60.3642750  48.2927561
  61.4489794   9.7743756   5.5596298  61.3928556  10.4133534   6.2701154
  60.5378914   9.5831966   5.3369170  34.4659448  28.9008141  25.7086205
  35.1427698  29.3561506  25.2078128  34.8623705  28.7522840  26.5671182
  32.4661279  40.4674435  62.0164347  32.3673987  39.7509360  62.6434135
  32.1011901  41.2302208  62.4650049  27.4522543  38.6477494  40.6196308
  27.8605819  37.7940655  40.7635975  26.9190168  38.5287070  39.8336816
  23.7088561  48.7526608  67.2614574  24.3908501  49.3637419  66.9827175
  23.1458545  48.6555052  66.4934587  15.5849469  11.0327160  14.4628453
  16.0385847  11.8751955  14.4888127  15.8820581  10.5763435  15.2500427
  31.6493607  53.9667511  41.0808134  32.4961495  53.7884903  40.6716633
  31.7176700  53.5769367  41.9523668  81.3711452  58.8976049  44.9910927
  80.4203129  58.9536905  45.0859928  81.7152023  59.2659092  45.8048487
  26.0198092  70.1316738  34.5685363  26.3021731  69.3182564  34.9866867
  25.0809216  70.0135374  34.4244504  35.4299164  18.7364042  10.8666825
  35.6063366  19.6733761  10.9514856  35.0240254  18.4928465  11.6986465
  27.0883083  18.1624138  20.0941610  27.8520799  18.7149024  20.2604151
  27.4539876  17.2968471  19.9116647  21.2783384   4.7160327   1.6363190
  20.3896117   4.9790096   1.8755642  21.4836049   5.2414650   0.8630024
  29.5217466  35.3036785  11.8127763  28.9282012  34.9221826  11.1659420
  29.9689054  34.5514178  12.2005689   9.4527704  48.1272888  29.2687440
   9.2452127  48.2478905  28.3421326   9.8357141  48.9618778  29.5390129
  18.1990242  51.8098974  41.5481091  19.1086197  52.0364094  41.7419147
  18.1669199  50.8567333  41.6298580  16.6673779  31.8250084  39.7986054
  15.8587492  31.3374543  39.6416235  16.6988671  31.9371009  40.7486963
  13.6748934  41.7672586  38.6604881  13.2836246  41.4628458  37.8416634
  14.5934975  41.9253397  38.4427571  79.5603371  40.1428461  65.2491474
  79.1577959  40.2199793  66.1141586  79.9151087  39.2540622  65.2284622
   5.0882065  32.1709061  17.1060228   5.3401929  32.9746747  16.6513920
   5.7254720  32.0870805  17.8153169  13.1523323  19.3558347  53.6716652
  12.2423017  19.5055914  53.9278889  13.2833660  18.4153128  53.7920046
   6.3086098  40.4284906  31.2593126   5.9362251  39.5619249  31.0961413
   6.9220853  40.2934313  31.9815588   6.0049671  64.5968103  26.9726086
   6.7770511  65.1557255  27.0605254   6.0071552  64.3281078  26.0538983
  19.5022380  32.2981834  46.5565062  19.4747412  32.5774574  47.4716425
  18.8644838  31.5863180  46.5040636  12.4404848  25.6995821  18.3107996
  12.0323694  25.5671000  17.4551582  12.9354393  24.8953438  18.4671831
  41.1210060  34.0364909  15.9376884  40.7648706  33.4043527  16.5620303
  41.5602446  33.4999657  15.2778065  44.3156004  44.7610521  35.9637046
  45.0565672  44.6937752  36.5659308  43.8583279  45.5571461  36.2345719
  70.7096863  42.7153587   6.5343130  70.6130838  42.2057962   5.7297957
  71.4250278  43.3235312   6.3481843  37.3448849  28.9979124  40.0375271
  38.2197309  28.6299038  39.9132490  36.8397403  28.2868695  40.4318380
  18.1762123  40.9461212  20.5532193  17.4869215  41.2396336  19.9574339
  18.0713415  41.4955139  21.3300085  76.6793823  51.5178156  51.8915701
  75.8295345  51.7721033  51.5319443  77.2533178  52.2586393  51.6966009
  20.7511544  34.9475551  25.6169510  20.2865291  35.3828216  24.9021792
  20.0785494  34.7914982  26.2798810   7.8535587  39.1091537  24.4085383
   7.8776777  38.1632781  24.2637205   8.6951065  39.4235778  24.0781355
  18.0785394  34.5766234  29.7188711  18.9766788  34.2470074  29.7493601
  18.0226898  35.1879215  30.4533291  34.5129037   8.5000932  48.3771324
  34.0903401   8.1294847  49.1519403  35.4455733   8.5052836  48.5923767
  76.9239235  58.2890654  54.6378422  76.7596960  58.3417368  55.5793762
  76.6796684  59.1520596  54.3034601  42.5462770  65.4311895  17.6624048
  42.1678734  66.0045624  16.9958580  43.4090137  65.8062363  17.8391945
  27.9463387  42.1620464  30.5229259  28.4997940  41.4038181  30.3358150
  28.4623671  42.9132748  30.2303481  27.5649548  33.9258814  43.4182501
  26.7656922  34.2747808  43.0236864  28.2455587  34.5537663  43.1758308
  23.1946898  67.8241158  32.6345301  22.4935460  67.3178720  33.0448294
  23.8557220  67.1723366  32.4011827  34.5497227   9.4535285  44.1987705
  34.3658948   9.9378037  45.0037050  34.9967360  10.0855565  43.6357880
  39.9190998  10.4528427  61.7476368  39.3718863   9.6678936  61.7730188
  40.5991554  10.2500558  61.1052704  33.5990691  60.1689672  23.1814718
  33.6972857  59.7876263  22.3090243  34.2921996  59.7611046  23.7005544
   7.3578602  21.3557982  34.3966651   6.5025401  21.5112305  33.9960408
   7.9333591  22.0049167  33.9920950  10.2418852  35.1671863  21.2355804
   9.8944896  35.4451251  20.3880548  11.1140537  34.8265004  21.0368657
  69.4028807  55.9397650  67.1348190  69.7328281  56.5050030  67.8332996
  68.4683180  56.1407375  67.0854235  23.5919619  34.9094200  54.2154408
  23.0641818  35.6833172  54.4123220  23.7502456  34.5042086  55.0680733
  29.0371275  10.6715786  45.0449753  28.6061406   9.9168026  44.6439838
  28.5713935  10.8024609  45.8709288  15.2285838  46.7790604  65.9161854
  15.6615818  46.4434385  65.1312637  14.5409775  46.1397028  66.1023331
  71.2714481  77.3887396  11.4565873  70.3934717  77.0076132  11.4679968
  71.3514090  77.8313684  12.3015237  86.4389896  33.5230970   1.3103068
  86.8953705  33.1428528   2.0608839  85.7102585  34.0102959   1.6947734
  13.2781708  31.6258907  43.6543894  12.6255119  31.3604641  44.3023205
  13.6713839  32.4178314  44.0210581  23.4021425  54.6876240  40.9267044
  22.7879810  55.1188898  41.5208817  24.0493703  55.3619862  40.7203913
  35.7864690  23.3779025  23.8839293  36.4365745  22.8614211  24.3602109
  35.8474827  23.0659771  22.9810381  32.1052527  48.2259083  54.3673563
  31.3939404  48.3922625  54.9858952  32.6173520  49.0346003  54.3681192
  65.0291395  11.6215885  44.2919827  64.8566532  12.1773756  43.5319948
  64.4792938  10.8502519  44.1543484  23.8564563  44.8190212  37.2766137
  23.0867076  44.2503929  37.2572327  24.5964813  44.2176104  37.3596597
   7.4874866   2.4063873  43.3519936   7.3531795   1.8871754  42.5591421
   8.4383625   2.4853261  43.4283829   8.9308274  11.4642978  23.8216043
   9.8177326  11.1360037  23.9694381   8.5132825  10.7921016  23.2830524
  26.0328364  30.8657050  22.2899365  26.5932488  30.1893115  22.6702785
  25.2220178  30.4079986  22.0678782  48.2152462  60.4598427  35.9822273
  48.9146996  59.9453115  35.5794239  48.3687067  60.3772068  36.9234252
  40.9904957  11.2272072  45.1084900  41.7599535  11.7373574  44.8556757
  40.6000519  10.9551406  44.2779684  13.5358298  20.8739614  45.4605293
  12.7306116  21.3324237  45.7006645  13.6280298  20.1889729  46.1227417
  10.4964709  61.8535852  12.8263772  11.3228214  61.4737129  13.1248343
   9.8223603  61.3432264  13.2750905   7.5357985  58.8981247  47.0614004
   8.2470256  58.2636166  46.9731426   7.6205528  59.4614410  46.2921667
  26.5365720  78.7923145  34.2419362  25.6788373  79.1900253  34.3914247
  26.3404799  77.9349232  33.8642263  13.3100069  33.3154607  23.7569809
  13.4522939  33.4947944  24.6864033  12.6962376  33.9930844  23.4735250
  28.9427829  59.3873215   6.1462867  28.4277081  58.6726046   6.5206003
  29.0413785  59.1536474   5.2232987  11.4979947  31.7068505  15.0684917
  10.8349967  31.8423605  14.3915105  11.8053579  32.5877476  15.2824545
   7.4037963  71.7373228  61.2801218   8.3192384  71.7419910  61.0005188
   7.0074111  71.0168171  60.7902384  41.8024111  50.7982540  43.5782862
  42.7308941  50.5809164  43.6614227  41.5775537  51.2114191  44.4119310
  37.9182506  43.6187267  29.5929027  38.5624552  43.7903118  30.2797723
  38.3939290  43.7678146  28.7757516  17.2182143  35.8947587  37.5214648
  17.9902196  35.4397798  37.8579688  16.4796710  35.3575850  37.8082204
  27.2832394  31.1400723  17.9872549  26.8242860  31.0152793  18.8179290
  26.5982676  31.4022684  17.3721969   8.2337958  46.9483471  20.2523017
   8.4771764  46.3349152  19.5589769   7.3718548  47.2736645  19.9925697
  25.7299471  66.6864395  32.9931951  26.5102053  67.2255898  32.8638005
  25.7237935  66.4952087  33.9310789  29.7417402  53.8184357  46.6996956
  29.5587158  53.6377811  45.7776880  30.5716300  53.3732128  46.8708467
  10.7663882  55.5246258  58.3177710  10.3997493  55.4368925  59.1976023
  11.5529716  54.9793243  58.3306026  64.6038824   0.0251198  26.2909985
  63.9760429   0.7287788  26.1269784  64.2255288  -0.7394695  25.8568525
  56.6047430  60.0050974   2.2404440  56.8366575  59.1098547   2.4873944
  56.4417219  60.4485846   3.0728960  12.2851551  50.8802652  33.9392447
  12.3200214  50.5484247  34.8364043  13.1801605  50.7846928  33.6135697
  31.7464256  47.8149986  31.0449290  30.8866382  48.2234812  30.9442472
  32.3379612  48.3749008  30.5421114  22.3736072  25.1212239  56.0191917
  22.4778008  25.5437922  55.1666594  21.8876433  25.7573342  56.5440130
  32.8362823  55.1508856  44.3853426  32.6806855  55.5112648  45.2583504
  32.0875788  55.4463816  43.8673067   8.7511909  17.5510347  25.9015679
   8.3395344  18.3270609  25.5213642   8.2605541  17.3902321  26.7075777
  38.9143205  69.7435617  32.1007991  38.5152435  69.1211748  31.4928460
  38.4356856  69.6183920  32.9202342  77.1414995   9.7673172  52.9814196
  78.0433083   9.6179545  52.6974058  77.2243071  10.3061724  53.7681913
   5.9690851  70.8816528  31.1404800   5.6529570  71.2077951  31.9830513
   6.8791240  71.1750889  31.0962439  53.4552431  61.1362553  26.8300939
  52.8859091  60.7971764  26.1393595  52.8571987  61.3713503  27.5395322
  78.7579393  43.7964249  68.5523653  79.3681908  44.0868855  69.2302036
  79.3098974  43.6313486  67.7879572  43.8118458  39.9612355  37.0944262
  44.2273426  40.7740688  37.3823524  43.5053635  39.5496321  37.9024386
  29.1421819  71.1763096  43.6509895  28.8234162  71.8055630  43.0039501
  28.5388565  71.2650061  44.3887997  27.5949860  57.3402977  50.1357079
  27.2162294  57.1888685  51.0016441  27.8087282  56.4654255  49.8114491
  33.8816792  43.7986810   0.3608029  34.7005486  44.2935370   0.3891365
  33.2649961  44.3812428  -0.0825460  -0.3564040  47.2338867  40.4773188
   0.1164850  47.9948568  40.1403618   0.2602800  46.8153620  41.0779667
  35.5852270  61.3989496  18.1723881  36.0597563  60.6127691  17.9022563
  36.2701678  62.0132971  18.4363246   6.0267872  29.7647429  62.9399729
   6.8760127  29.7598696  62.4983597   5.5120111  29.1041207  62.4764919
  41.6335964  11.4784169  11.4429867  40.7122564  11.3085794  11.2467194
  41.6163540  11.9796586  12.2582734  27.0637608  21.3386965  56.9690657
  26.4726686  21.1511278  57.6982164  26.8497276  22.2354984  56.7118311
  43.1620646  33.5268021  56.4845991  43.2518768  32.7282715  57.0047092
  43.8182592  33.4375453  55.7934570  13.9249194  39.5526958  20.1662660
  13.2779920  40.1388931  20.5588126  14.3400896  39.1201210  20.9124184
  21.7578220  42.1484089  28.3235645  22.3521137  41.5353537  27.8908801
  22.3356080  42.7730608  28.7619710  20.1603127  61.0882664  42.1916199
  20.2126098  60.4807043  41.4538097  19.8007703  60.5648661  42.9078722
  22.9938579  38.5325122  14.8245406  23.9086580  38.4031701  15.0748241
  22.5248504  38.5976148  15.6564212  15.6877184  29.2194152  14.4764340
  14.8043811  29.5455384  14.6484506  16.1867130  29.4555473  15.2584040
  22.0940971  43.0510235  23.7514520  21.7618775  43.8488054  24.1630340
  22.0455146  43.2280731  22.8120255  81.2982845  26.0870671  63.5600424
  82.1913052  25.7961154  63.7447071  80.7576656  25.6200099  64.1970778
  42.9794312  62.9422188  47.7970409  43.7738276  62.5494909  48.1588888
  42.8004694  62.4346495  47.0054722  30.8447838  57.0383930  22.5934196
  30.1591492  57.7042627  22.5409126  30.3742838  56.2234402  22.7686763
  17.8218341  33.2189941  64.7747946  18.7253475  33.3707976  65.0520086
  17.7572811  32.2688413  64.6784782   5.4138321  44.7542858  15.7946646
   6.1373991  45.3644133  15.9375846   4.8973736  44.8025656  16.5991354
  37.6663017  51.6607523  43.4762812  38.1424403  51.3158274  42.7209377
  37.6800799  50.9473038  44.1142750  77.8374529  19.2542124  19.4541323
  77.4711084  20.1381111  19.4268858  77.0961761  18.6815333  19.2572069
  17.2074461  72.1530151  20.0227666  17.5411677  72.1236277  19.1261077
  17.9880214  72.0764971  20.5714750  43.7696886   7.6741910   6.9949245
  43.1180382   7.1331465   7.4408597  44.0331268   7.1546245   6.2353969
   8.5733455  49.3210888  46.6916704   7.8688830  48.6757803  46.6321325
   9.2529500  48.8868856  47.2072649  55.8204031  11.6096246   5.0312978
  56.6619444  11.4730382   5.4664749  55.1756907  11.5657866   5.7374561
  68.4828520   5.0524378  27.6414895  68.8003540   5.5161834  28.4163237
  69.2771673   4.8060980  27.1675587  19.4189203  69.9734068  12.4319494
  19.8622596  70.8181715  12.5097716  18.5351348  70.1929951  12.1370995
  42.4825048  42.9818058  35.0853658  43.1365919  43.6647081  35.2338600
  42.9539013  42.2980833  34.6094012  67.1982574   0.9755377  51.7233419
  67.5132132   1.3048720  52.5651121  67.6655912   1.4981644  51.0716581
  32.3951411  35.6751394  19.4077814  31.4506221  35.7805538  19.5218241
  32.5900650  36.1320138  18.5895503  77.8097057  12.7331018  50.3258801
  78.4720325  13.4147108  50.4397202  77.2001839  12.8678346  51.0515261
   3.1094581  35.9572077   8.7429303   3.9402485  35.4961896   8.8590437
   2.5689262  35.6653023   9.4769937  28.8832235  46.8551397  42.6705170
  28.0687571  46.3954639  42.8744125  29.5495963  46.1680841  42.6590061
   5.3554940  70.1427174  28.5172868   5.4284990  70.6825638  29.3043518
   5.5635160  69.2568636  28.8143110  29.7930717  12.7495623   3.3283517
  28.8930488  12.8697753   3.0254659  29.7287822  12.0820534   4.0113819
  33.6722350  27.0388412  48.0190802  34.2543221  27.7985477  48.0031872
  34.1858411  26.3524461  48.4448767  56.4777803  60.7893610  44.0166616
  57.4115133  60.9476709  43.8777065  56.0472393  61.2464666  43.2942200
  32.4126673  63.1172276  45.3190613  32.1216798  62.2903013  44.9346781
  31.8597937  63.7808037  44.9064732  33.8863587  69.4105196  63.5771942
  34.7990584  69.1548014  63.7106657  33.5787511  69.6634626  64.4476128
  34.4071913  64.9001074  48.2428551  35.1805639  65.0508308  48.7863731
  34.6503568  65.2386332  47.3811722  72.3064709  34.7726631   2.3900087
  72.8651285  35.5183363   2.1706787  71.8302727  35.0519800   3.1719598
  55.7488012  66.6428041  38.4490466  54.9484015  66.5286112  38.9614487
  55.8175611  65.8412409  37.9303956  39.2740059  46.5339470  24.2597413
  39.8298049  46.5652418  25.0384188  38.6382461  45.8432770  24.4468617
  85.1252842  60.5512476  69.2903137  85.7690907  60.7806492  68.6201525
  85.1806259  59.5981455  69.3593216   9.9642229   4.4827849  55.0099087
   9.2708004   3.8234645  55.0362539   9.5286751   5.2761304  54.6982479
  11.1059356  57.7177191  53.9555168  11.7740273  57.0507240  53.7974024
  11.3936329  58.1603289  54.7539854  66.0919952  55.3690863  47.2080612
  65.8249187  55.8835888  47.9697609  65.2798700  54.9770737  46.8871069
  64.6595335  48.7874079  26.8378186  64.2944050  49.4232082  26.2224579
  64.7176552  47.9744244  26.3359070  64.3590641  67.8873873  32.6464939
  63.6246061  67.5470924  32.1356106  65.1039648  67.3461962  32.3848414
   0.5876351  52.1271133  52.4039555   1.3140404  52.7408600  52.2949696
   0.6824452  51.5121889  51.6765547  45.1402664   2.3995538   4.0675551
  45.0728893   2.1248397   3.1531018  45.5993557   3.2387373   4.0323365
  35.8487773  74.8593283  64.5727015  35.3822064  74.0447664  64.7598743
  36.0925150  74.7890902  63.6497259  30.1495147  55.4050350  30.5496454
  30.5261540  54.5848227  30.2308583  30.1405454  55.3102446  31.5020967
  50.3116608  55.5029774  47.8111839  49.7535610  56.2663126  47.6625872
  50.9284258  55.7850695  48.4866571  41.9508410  55.5211020  34.3480110
  42.1794081  54.7372770  33.8484049  41.2526703  55.2346706  34.9368644
  72.7985430  41.3254881  40.6774807  73.3785152  40.5917645  40.8812189
  71.9317627  41.0302305  40.9563112  33.3034158  63.2466555  29.1980028
  34.0898585  63.7884951  29.1335440  32.9733467  63.1959009  28.3009458
  31.9026709  67.8784990   8.3770305  32.7777314  68.2637072   8.4230477
  31.8517184  67.5041485   7.4975449  32.5935984  50.5083513  33.2437110
  31.6845798  50.5487394  32.9465818  32.6821089  49.6352100  33.6258388
   7.1527582  52.7058649  12.4664903   8.0447602  52.7058744  12.8137136
   6.6473949  52.2020864  13.1044924   9.3159425  80.9749126  19.4064355
  10.0592351  80.9246349  20.0074506   8.6235225  80.4757214  19.8395586
  21.0451770  31.1164713  43.3714485  21.6739058  30.4009485  43.4660959
  20.3181100  30.8738518  43.9448071  69.7945070  26.3415098  39.5815873
  69.0271807  25.7962155  39.7550797  69.5091629  27.2305393  39.7924018
  27.2978234  13.5591507  14.7581375  26.9950986  12.9092944  14.1238844
  26.5953946  14.2086494  14.7893894  11.5381074  31.0461235  33.5892487
  12.4424410  30.7979083  33.7810874  11.3609040  30.6609011  32.7310896
  45.2167511  71.5267706  68.3599043  45.5076599  71.1803293  69.2034578
  45.0431538  72.4529028  68.5283470  30.2393723  45.1622868  10.6171286
  30.3720927  44.8153687  11.4993227  30.0262165  46.0855913  10.7524061
  53.0624676  58.8033867  58.5725832  52.3630810  59.3713951  58.8957787
  52.9595518  58.8145018  57.6209927  14.2110944  16.5233803  67.3169851
  14.0762925  15.8209133  67.9530668  14.8446381  17.1066225  67.7349329
  67.5207520   7.0612895  59.6781778  67.1349144   7.0862699  60.5538177
  66.7939281   6.8225068  59.1029024  34.5449662  43.2972813  26.7612791
  33.8705993  42.6315355  26.8963575  35.2120590  42.8587580  26.2331533
  25.4304171  19.6634305  40.5517769  25.0043797  20.4835629  40.3025627
  26.0911846  19.9223280  41.1941099  26.4396358  64.6955585  46.0303020
  25.6720066  64.5779371  45.4707098  27.0305467  65.2438688  45.5141497
  63.3782911  71.9077158   0.3789979  63.2592773  72.4694395   1.1448532
  62.4910927  71.6433001   0.1357089  50.3229523  51.7662954  37.4220538
  50.4428482  51.9947386  36.5002775  49.4615555  51.3502455  37.4556184
  84.2104435  62.9100037  67.8962898  84.3426514  61.9989443  68.1584454
  83.6806393  62.8559017  67.1009207  56.2934589  64.0910244  37.8304863
  56.4162922  64.0461445  36.8822622  55.9399605  63.2335281  38.0670619
  22.3361063  59.1599178  40.3992605  21.4518762  58.8028193  40.3164864
  22.8883553  58.5469866  39.9139118  36.8214822  31.4025116  41.5460110
  37.3511577  30.6463695  41.2931728  37.0256782  31.5394235  42.4710989
  26.4708877  42.6745319  21.4511538  25.8414268  43.1346560  20.8959103
  26.1800647  41.7626762  21.4381099  47.8525066  70.7129002  44.1267967
  48.1010723  70.1984596  44.8947811  47.0130491  71.1069822  44.3639517
  15.4053712  35.4063559   2.0077921  16.2934303  35.0507426   1.9743019
  14.8798382  34.7862577   1.5022969  37.2732496  69.8703861  39.9737692
  38.0813956  70.1983452  40.3681993  37.2138762  68.9619541  40.2695036
  29.5121837  47.9387379  27.5312924  29.4499040  47.0039034  27.3352289
  30.1459432  48.2746840  26.8974781   4.4811606  46.2711859  53.3171654
   5.3768450  46.1654425  52.9965401   4.1367620  47.0160675  52.8244495
  55.0658083  60.9028339  34.5664120  55.8457851  61.3421679  34.2275047
  54.3436098  61.4891768  34.3408728  30.5819941  77.9740429  43.2503748
  29.6537900  77.7486277  43.1882381  30.5886745  78.9145088  43.4284449
  37.1639752  69.9721241  48.5696650  36.7945576  69.8212910  49.4397306
  36.4016175  70.0533628  47.9965687  28.2756257  50.3859472  26.4917707
  28.8356042  50.9979725  26.9693446  28.4638953  49.5332241  26.8837571
  70.3980160  49.2311001  35.8861971  70.2209854  48.3699608  36.2647915
  69.5325136  49.6204567  35.7615542  34.5005679  72.8064013  61.8651056
  34.3893766  71.9474936  61.4575005  35.3282881  73.1334019  61.5127134
  38.1831646  55.3555346  25.9136009  37.5272036  54.6598816  25.8686757
  38.6582637  55.2906036  25.0851703  43.3992863  65.8116913  40.6962824
  42.6523590  65.8600807  41.2929296  44.1541815  66.0405111  41.2385082
  25.2651548  77.7396536  16.0546184  25.0689411  77.2302485  16.8408990
  24.6687198  78.4870338  16.0984087  12.5532246  44.1621780  56.8815136
  11.7521369  44.3827724  56.4063025  12.3076952  44.2203474  57.8048563
  62.1536160  67.3411369  59.1262674  62.2641754  66.8430567  58.3163786
  61.2583637  67.6768208  59.0806866  49.9097443  46.7090273  18.4930348
  49.6090651  46.2296963  17.7209818  50.2469301  46.0316086  19.0792441
  70.0164366  23.2112312  51.8948603  69.4333649  23.8035607  52.3696232
  69.4702291  22.4531674  51.6869354  48.3690643   8.8017368  47.0849848
  49.1896439   8.7317938  47.5728226  47.8242588   8.0943656  47.4300098
  30.4606771  80.4972744  44.2263317  29.6133852  80.7147694  44.6149445
  31.0914946  81.0242939  44.7167921  12.5089347  45.2864075  60.6467962
  12.2074592  45.0870752  61.5331411  12.6973486  44.4313812  60.2599335
  10.0127351  78.3517170  49.5392275   9.7080791  77.5199318  49.9019194
   9.7137505  79.0102577  50.1662540  49.3630123  72.0341444  35.2762699
  49.2629242  71.6201878  34.4190335  49.1259050  72.9497862  35.1292372
  81.2731934  40.1376724  54.8988581  81.0689545  40.7549191  55.6013727
  82.1849823  39.8911810  55.0541687  32.8585839  58.6676884  33.7705135
  33.7598658  58.9886570  33.7404990  32.5934052  58.6121798  32.8524566
  34.4226694  67.1403790  28.1131911  33.9870739  67.3052406  28.9494371
  33.7284184  66.8112564  27.5422907  33.4073567  45.9182501  10.2942574
  33.3323526  44.9662638  10.2284884  32.5118566  46.2189484  10.4488277
   3.8300243  61.8207645  47.1323061   3.9474249  62.6252222  46.6270399
   3.1949627  62.0537996  47.8095198  63.3662271  53.4997606  25.8882070
  63.1766224  53.4905577  26.8263936  64.3069744  53.3321095  25.8323193
  36.6531873  76.5549421  38.5480213  37.4513268  77.0305681  38.3178282
  36.9607401  75.6938457  38.8311434  67.0330048  45.4945374  20.4982400
  66.4389944  45.1873875  19.8133731  66.4699316  45.9728241  21.1068630
  84.5148277  65.5432415  17.3543990  85.3695583  65.1305723  17.2304296
  84.3520927  65.4790306  18.2954764  26.4615846  77.0593071  45.5680799
  27.0816517  77.5523329  45.0307941  26.9866610  76.7277145  46.2964821
  71.1965704  55.2324343  18.9180958  72.1035433  54.9791956  18.7463534
  70.7353067  55.0392580  18.1019163  34.1686702  35.5385399  66.9562626
  33.7771654  35.7128453  67.8121710  34.8733091  36.1818528  66.8797064
  33.5048032  66.1533642  70.4952097  33.3381176  65.8492613  71.3873816
  33.4042096  65.3711128  69.9528122  13.7088943  69.6889114  36.8909478
  13.5949111  69.4664478  37.8149343  14.2600083  68.9883137  36.5421367
   8.3782899  70.5387926  28.2682228   8.0896288  70.2032328  29.1169310
   7.6854545  70.2805471  27.6603413  25.6069541  43.6859655  28.8199258
  26.1241055  43.3254528  29.5402145  26.1772728  43.6113453  28.0548120
   6.2137604  57.4167109  40.6762886   6.7449409  57.5888872  39.8988342
   6.6559601  57.8932762  41.3788414  24.7607112  73.6159801  35.0407600
  24.9232793  73.2924891  35.9268498  23.8079572  73.6878633  34.9830699
  50.8629990  52.8475857  50.6260538  51.2261295  52.0801640  51.0681343
  51.5826273  53.4785843  50.6117153  34.5210791  38.2832265  26.0791111
  34.9377799  38.1753778  25.2241492  34.0146804  39.0914917  25.9984922
  32.6760769  53.9960814  36.5944743  32.8407049  53.0744648  36.3951015
  32.4331141  54.3833637  35.7535148  27.4372387   8.4965509  43.6423683
  26.7266989   7.9213101  43.9260292  27.0490217   9.0342820  42.9521799
  19.9279547  61.9313383   6.0467535  20.4961205  62.2754622   6.7359555
  20.3173232  61.0884666   5.8139682  14.1149366  51.2175608  21.3408709
  14.6001220  50.4890299  20.9534764  13.2447922  51.1628294  20.9457970
  75.6025171  53.5040569  15.0985289  76.2751055  52.8847265  15.3818691
  75.0839663  53.0178261  14.4575024  79.9816132  25.9434628   7.3603952
  79.5935488  26.8131733   7.4565268  79.3275738  25.4418159   6.8737590
  32.1588659  59.2698145  36.3842320  33.0128264  59.5800066  36.6855025
  32.3019147  59.0247869  35.4700494  46.7186928  55.1658630  28.3952403
  46.5292788  55.7426262  29.1353059  47.1565866  54.4100046  28.7866044
  34.8254657  75.3852129  14.6479070  35.3113532  75.1091909  13.8707602
  35.0028443  74.7034502  15.2959561  48.8139439  49.1492701   8.9927715
  49.1733789  49.9016476   9.4628441  49.1679716  48.3880901   9.4526678
   4.7617435  62.3420429  67.8544998   3.9844605  61.7853117  67.9004335
   4.4745255  63.1839943  68.2078457  49.7317600  69.8105383  49.4832325
  50.5292845  69.2812109  49.4814634  49.3378019  69.6472263  50.3401804
  20.1390147  55.8861780  28.6417508  20.1488686  56.7868519  28.3178377
  20.9372473  55.4951620  28.2865596  22.1406960  62.0755625  47.7286720
  22.5931334  62.4421453  48.4883785  22.8092217  61.5600300  47.2775221
   7.9668540  16.5907037  34.0997767   7.3117173  15.8995271  34.1962290
   7.8104228  17.1742785  34.8422074  49.4267321  60.1813793  31.9336820
  49.7751427  59.4037580  32.3697376  49.6293449  60.0477648  31.0077620
  46.5950632  41.4311647  31.7045045  46.8291807  42.0864964  31.0472679
  47.4333096  41.1486959  32.0702744  26.9404984  64.9149561  53.2733250
  26.3910651  65.5931377  52.8803587  27.7058125  65.3870487  53.6014366
  20.7792187  58.7311935  36.7979383  21.5235114  58.2015753  36.5119958
  21.1694384  59.5554256  37.0888019   9.4653988  72.8229952  51.8989325
   8.6505377  73.0308676  51.4417458  10.1146400  72.7313614  51.2015676
  66.7446852  69.3119860  46.6396236  66.1256838  68.6779261  47.0016193
  66.3264465  69.6236563  45.8370256  22.9640579  62.2560787  30.9633112
  23.7370348  62.2738457  30.3990221  23.1661010  61.5951300  31.6255474
  54.4733238  51.2640524  44.2153692  54.4514561  50.3089142  44.2741728
  54.9631548  51.5405512  44.9898624  62.4268293  51.2717867  65.2192545
  62.9829502  50.4984522  65.1248503  62.7168131  51.6770124  66.0365295
  70.5995369  18.9075887  19.4559574  70.8842039  19.1165555  18.5662794
  70.1539421  19.6994317  19.7570586  22.1217108  51.2708426  46.6061258
  21.9186687  52.1256828  46.9859362  23.0760026  51.2622213  46.5320683
  20.5114889  71.4799309  37.4713206  21.1477447  70.8006859  37.6950097
  19.7229183  70.9972095  37.2235942  78.9199591  29.1235161  61.1918831
  78.9439011  28.8727593  62.1153450  79.3917894  28.4231567  60.7412148
  39.2690182  59.1801214  27.9368949  39.0112591  58.6022091  27.2186995
  39.9120688  58.6735344  28.4329653  27.8072619  70.3600407  11.1643291
  27.9451108  71.1935854  10.7144094  28.5112715  69.7958946  10.8444178
  24.8870397  57.3409414  31.0644722  24.4443321  56.5286827  30.8185482
  24.4076848  58.0256844  30.5980229  86.3365078  69.5357656  26.1527371
  86.2561512  68.8605404  25.4790592  85.6786156  70.1895761  25.9162140
  53.4418678  80.9640408  53.6986256  53.0172920  81.4027214  52.9613829
  53.2196712  81.5026665  54.4580603  47.2340488  80.7527161  29.1378713
  47.7859497  80.0096035  29.3816400  46.3463593  80.3951931  29.1172791
  44.6402407  42.6885653  13.4422994  45.0570345  41.9747305  12.9596400
  45.2646828  42.9064560  14.1342711  50.2092552  53.8240004  56.5043831
  49.7280884  54.5390272  56.0879183  50.7358265  54.2512178  57.1799850
  25.8595300  57.7167368  59.2031908  25.0756311  57.9481554  58.7050152
  26.4928102  58.4003687  58.9844704  52.3602343  75.6025314  40.9877157
  51.9739103  75.3279591  40.1560926  52.7275896  76.4677763  40.8070755
  35.0646353  63.9392567  44.6666861  35.0935531  64.0433884  43.7156057
  34.2125726  63.5381317  44.8379135  19.7871614  79.1336107  31.7579699
  20.4695797  78.9988470  32.4155211  19.9984860  79.9797153  31.3634038
  49.9044752   3.1509212  43.3625507  49.2031479   3.5472420  42.8455400
  49.4537783   2.7295685  44.0943718  41.4632702  71.3459778  53.0245495
  41.1261606  70.8247614  52.2959042  40.8995724  71.1172819  53.7635803
  28.0564618  53.6048031  38.9010119  27.2639823  53.8087177  38.4044003
  27.9175043  52.7123499  39.2179561   6.2386632  13.2845581  49.6699572
   6.2214959  12.8415596  50.5183029   6.2649912  12.5739634  49.0291786
  39.9716020  73.7004566  58.7403679  40.6627131  73.3550072  58.1753397
  40.4370642  74.0605259  59.4953060  24.4812965  78.5908556  27.5854492
  25.0064445  78.0651236  26.9820762  23.6495113  78.7193251  27.1295309
  35.2567697  18.8547504  54.2274189  36.0449815  18.3141565  54.1753531
  35.4740381  19.5341480  54.8657322  71.7145395   2.3925237  38.9701176
  71.3095903   1.8668446  38.2802558  71.2198067   2.1735172  39.7597408
  22.6337862  75.4635382  20.7140756  22.4111652  76.2995386  21.1236787
  23.0132532  74.9433422  21.4223337  18.9184618  55.3842020  58.4284592
  18.6343408  55.5015659  59.3349504  18.5662329  54.5308304  58.1756353
  34.7252345  70.9250307  55.0116539  35.0542474  70.6500530  54.1558695
  35.0940609  70.2898407  55.6254435  12.9224825  81.4977551  39.7348523
  12.7881205  81.3454914  38.7994409  12.0390868  81.5886497  40.0920391
  73.0712032  56.0659122  62.5805473  72.9904842  55.4385281  63.2989454
  73.6274815  55.6246901  61.9385958  84.0397167  80.0853729  52.6428175
  84.2447376  81.0187340  52.6979160  83.5805035  79.8923588  53.4601927
  51.0516930  69.5291042  41.5816689  51.9168520  69.4235086  41.1859703
  50.6341028  68.6742878  41.4761496  73.3297729  72.5268698  58.4543180
  73.4958363  72.2530603  59.3563604  72.4625921  72.1751308  58.2530403
  49.3450403  68.1990719  34.4885755  49.1720533  69.0784454  34.1524124
  48.5322523  67.9457235  34.9260926  86.1642265  12.9948747  49.3542147
  86.0522079  12.4295616  48.5899496  86.3888073  12.3946679  50.0652361
  10.7930088  51.6888237  47.3480940  10.4173493  51.7747116  48.2242966
  10.0752401  51.3521767  46.8117046  27.4616480  20.3208017  30.6619239
  26.9082570  20.7873487  30.0355625  27.4471641  20.8671951  31.4477205
  33.8658309  49.8820782  45.7658625  34.6984482  49.6408272  46.1717892
  33.6101508  49.1074038  45.2651215   8.3492279  29.0931129   1.0496853
   8.9296299  28.3320570   1.0622045   7.5683385  28.7911940   0.5856935
  54.8968554  78.9437580  14.6512043  54.2359352  78.7868166  13.9768255
  55.0940371  78.0745363  15.0002027  57.3766470  81.6744423  35.5932593
  58.0003691  81.0519695  35.9670496  57.7993011  81.9855499  34.7927499
  47.0059729  46.9729853   7.9489076  47.3087072  47.8416348   8.2135355
  46.0866928  46.9485140   8.2145280  78.2856655  48.9872074  40.3274679
  79.0094709  48.7500381  40.9071970  78.6434078  48.8888311  39.4451022
  40.6492519  47.6699972  17.7941573  41.1861229  46.9807673  17.4030471
  39.7857809  47.5552177  17.3973298  27.6371861  12.1117163  17.3103404
  27.4653029  12.7796412  16.6465890  28.4678650  11.7176318  17.0440686
  76.4821148   9.7627151  39.0001893  75.5261707   9.7748637  39.0476537
  76.6957426   8.8797754  38.6985064  52.2769165  74.3174839  50.0866461
  52.8962612  74.4111204  50.8104372  52.1188688  73.3753061  50.0270271
  74.9172401   0.7123111  47.3782206  75.0919628   1.1969750  46.5714979
  74.3139791   0.0175565  47.1143579  82.1490574   4.4005081  19.9267149
  81.9230270   4.3547764  20.8557200  81.8488598   3.5663167  19.5658302
  52.1538019  53.9355898  70.8371544  51.4790487  53.2569122  70.8555746
  52.7159166  53.6945486  70.1008415  47.5997257  52.4816704  59.8723173
  47.5982046  52.1300936  58.9820242  46.7223263  52.2936773  60.2055693
   9.7446054   6.9563603  56.9384241   9.8732156   7.3982620  56.0991287
   9.8693168   6.0279018  56.7418432  30.0974941  66.7019606  47.3324728
  29.4667506  67.4170208  47.4166203  29.8902917  66.1131763  48.0581665
  24.3821597  77.3311090  32.7557349  23.8972402  76.5372133  32.5303102
  24.3775845  77.8509092  31.9519830  19.6720076  72.8395987  46.4581442
  19.7145474  73.4387064  45.7128334  20.5743456  72.5443029  46.5798807
  32.7438354  67.5419378  57.9279804  32.4867511  68.3187342  57.4312687
  32.0660233  67.4506950  58.5976648  59.0779448  65.7456255  39.6694613
  58.7756109  65.5182552  38.7901831  59.9594879  65.3764391  39.7225523
  16.2729442  70.4922581  68.7350655  15.7139051  69.8267221  69.1360235
  15.8061910  71.3154697  68.8789272  53.9992905  12.2636187  42.4779224
  54.5556831  12.6181614  43.1714344  54.2580652  12.7463782  41.6929293
  52.9828453  50.7657528  56.6322041  52.6594782  49.9300098  56.9686604
  52.2756052  51.0890150  56.0740423   9.9337399  10.7345080  42.8797722
  10.2879190  11.6235292  42.8590107   9.3016094  10.7116866  42.1613550
  65.9328938  48.4295607  42.3267078  65.5010223  47.7276993  42.8136492
  65.4322720  49.2156744  42.5449610  16.6153026  21.3502192  34.6201730
  17.0758259  20.8166003  35.2677822  15.7322037  20.9821057  34.5908260
  63.8495493  56.2647200  29.1458058  63.5048628  57.1193457  28.8868928
  64.7658491  56.4326811  29.3658376   3.2026196   6.7592138  23.5952997
   2.7773285   6.1884415  22.9553175   2.6834041   7.5632387  23.5814929
  81.5400791  77.6926231  70.5403996  81.6585827  78.1827307  69.7267771
  81.0784626  78.2986164  71.1199808  62.9628801  70.6405830  52.5715399
  62.2629261  70.9461117  51.9945240  63.7584019  70.7180691  52.0448780
  27.7637553   6.1695784  68.7988710  28.5451651   6.6502357  69.0719938
  27.0335364   6.6855085  69.1406679  79.5079994  56.1996746  70.4559231
  80.3887272  56.5020990  70.2343798  78.9256525  56.8505812  70.0642300
  51.5869570  48.6959314  14.2518282  51.9996023  49.5580721  14.3035519
  52.2591448  48.0896187  14.5629203  46.9058847  67.6084900  25.9575796
  46.2771416  68.2623529  25.6520081  47.0410776  67.0352411  25.2030325
  38.8392448  54.1304493  70.3590727  38.0808830  53.8465214  70.8694696
  38.5350633  54.1190004  69.4515610  40.1790237  63.5545540  36.1696601
  40.9640646  63.9585018  35.7998395  39.7499776  64.2617798  36.6513109
  81.5825748  76.4137220  52.3019600  81.8344116  76.6109800  51.3997936
  81.7888641  75.4853630  52.4106836  30.9070134  75.2775478  70.6375742
  30.1518464  75.0606728  71.1843109  30.6567621  74.9914122  69.7590923
  41.6944790   1.6168572  10.4048097  41.7853642   1.1113922  11.2125707
  42.4473715   2.2079465  10.4061568  27.3889256  64.2143965  18.7906194
  27.1922588  64.4957685  17.8970981  27.1259356  64.9542379  19.3380666
  18.8774657  70.8950567  47.9236937  18.0905747  70.5071592  47.5408506
  19.0597022  71.6579294  47.3750162  50.5560827  52.6066542  40.0048399
  50.2011538  52.0888758  39.2822289  51.4699030  52.7589941  39.7641039
  28.8718128  69.2916107  46.7837429  28.1978774  69.9609947  46.6655540
  29.5610619  69.7310019  47.2818470  54.5564556  31.4258122  58.1352997
  54.9653101  31.1749935  58.9636469  53.6162710  31.3858938  58.3104944
  60.3404856  17.1123135  63.6512661  59.4633579  16.8072641  63.8832664
  60.9301949  16.5515792  64.1553020  31.3592029  80.1734924  34.4115496
  31.1214685  80.5060387  33.5460281  31.8967223  79.4020033  34.2323756
  82.4523926  74.4434690  67.8356361  82.7226830  75.1999664  67.3151731
  82.5831509  74.7181034  68.7432241  31.0120130  80.7349014  26.2108278
  31.1718512  81.5539742  26.6796541  30.0743270  80.5760002  26.3191128
   7.9540980  43.1654310  61.5601921   7.0170856  43.1080151  61.3732624
   8.3054113  42.3183632  61.2858152  39.2137289  72.5001478  31.9746661
  39.2026162  71.6420126  31.5507412  38.3827090  72.5444317  32.4476099
  42.0730257  74.1292000  60.5641937  43.0140829  74.2409992  60.4295063
  41.9500065  74.2485905  61.5059185  75.0623798  60.7395029  39.5716596
  75.8632231  60.4947710  40.0353241  74.5587397  61.2417793  40.2122021
  40.6401730   6.9606113  14.5139062  40.2278137   6.7711020  13.6711264
  40.5470800   7.9075080  14.6185625  71.0810232  54.2381954  32.7637458
  71.0561514  53.7803316  31.9235229  71.4187288  55.1085329  32.5523305
  40.6719494  31.8911791  70.4274940  40.1064968  32.6544023  70.3092194
  40.8611488  31.5930915  69.5377874  26.1406493  74.8176193  37.7163935
  26.3943124  73.9014053  37.8279591  25.2697778  74.8746061  38.1095433
  24.6957374  24.4437027   2.1961550  25.2114010  25.2459669   2.2779588
  25.1388693  23.8150120   2.7659053  73.4898281   0.8298776  49.8788500
  74.1883087   0.9353600  49.2329168  73.2265043   1.7243746  50.0951052
  69.8003674  10.8643019  14.6634090  69.0603304  10.8843863  14.0566349
  69.9012947  11.7725599  14.9482107  64.0439653   7.7896339  27.7408075
  64.7246933   7.7247512  28.4106088  64.5003939   7.6150745  26.9177437
  19.1676533  73.1892061  21.6897607  19.4652295  73.7719965  22.3883557
  19.9738586  72.8725386  21.2823486  59.9777794  64.7880030  29.1836691
  60.8688402  64.4644928  29.3162465  59.5691061  64.1371822  28.6130142
  62.7328730  65.2818727   9.5988917  62.0921755  64.8815823  10.1866901
  62.2572708  65.9981871   9.1782629   1.6451558  67.9326582  45.6222439
   0.8590662  67.4817944  45.3139973   1.3136098  68.6968899  46.0936880
  66.1095667  33.3113241  55.7384777  65.2389431  33.3611774  55.3438091
  66.7111683  33.4823990  55.0138807  16.8292189  32.7810407  62.2362232
  17.3255074  33.4024215  62.7689695  17.4877441  32.3595810  61.6840029
  50.3331280  78.0278349  13.5602939  50.6916142  77.1562862  13.3926189
  49.4108438  77.9590034  13.3135319  69.7239161  51.0372829  30.7175493
  70.1654196  50.5866528  31.4374375  70.2243710  51.8443346  30.5973530
  12.7936864  50.6546497  44.2787218  13.0820251  50.7972860  43.3771992
  12.2729683  49.8524332  44.2395592  60.0579739  10.8870530  68.5868597
  60.0757456  10.0429487  68.1358576  60.1649809  10.6665301  69.5121479
  40.7099247  63.8208914  38.9375615  40.6593990  63.5680199  38.0157518
  41.6479540  63.8599634  39.1241312  28.6605215  43.6405277  23.4043646
  28.0242562  43.3000040  22.7755237  28.2115269  44.3728447  23.8266778
  37.3762107  40.4862547  35.9018779  37.2024274  39.6714759  36.3732243
  37.1777558  40.2813816  34.9881649  48.8766003  56.7528677  43.0642986
  49.1324091  56.1199570  43.7352800  49.0861082  56.3215208  42.2358751
  36.2181020  15.2920854  64.7811508  35.3211522  15.1993048  65.1022577
  36.6222119  15.9219420  65.3779840  19.1738069  36.7166138  10.6362069
  18.6049068  36.0563564  10.2404213  20.0528812  36.4869404  10.3350294
  32.3308206  70.0343895  56.9246817  32.9638290  70.0024509  56.2073898
  32.4323773  70.9112406  57.2948790  47.9282141  68.4740543  53.7112188
  47.0899200  68.1398010  54.0302229  48.5732222  68.1342697  54.3314981
  54.1731119  77.9741716  26.6434073  53.2710028  77.6547670  26.6230345
  54.1934109  78.5877609  27.3777986  51.9515467  73.2318211  60.2837563
  51.4730167  73.5482025  61.0500097  51.9199038  73.9605379  59.6639156
  81.5116596  47.1847248   9.7699112  81.6824341  47.9940176   9.2881310
  80.5599213  47.1614790   9.8693562  40.0054455  52.0356035  32.7833700
  39.3286371  52.5202370  33.2559109  39.7119546  51.1249542  32.8117943
  49.9670219  66.4453363   9.7364229  49.4149446  65.6835079   9.9126536
  50.6090498  66.4452362  10.4463744  31.9997382  71.2298298  54.1728497
  31.9106388  72.1623278  53.9760399  32.9250073  71.1184835  54.3912792
  72.1560669  31.9800067  61.9440746  71.8105173  32.4397826  61.1789417
  71.9992733  32.5787067  62.6742840  62.3965645  47.7367020  52.0656490
  63.1213522  47.1156740  51.9933081  61.7744970  47.3111296  52.6556969
  54.4168377   0.9820514  67.6833057  53.6283875   0.5710010  68.0377293
  55.1129341   0.7264788  68.2885790  78.0436945  -0.2379834  37.5066757
  78.0031633   0.6393463  37.1260428  77.8809118  -0.1018680  38.4400582
   5.5889237  12.3736131  67.3364401   5.0011081  12.6504207  66.6335297
   5.1696181  11.5972674  67.7075195  26.5103030  71.7880583  53.7510967
  26.2960887  72.4157476  54.4412756  27.4455261  71.9163179  53.5925388
  40.5035973   0.5513803  60.3996563  40.6835842   1.2651433  61.0115242
  40.5282021   0.9640506  59.5363331  83.4652519  12.2350645  46.0097408
  82.7240944  11.6319072  45.9539652  84.1550732  11.7279363  46.4377689
  29.8946953  66.5476656  59.9136972  29.7381663  66.1983538  59.0363646
  29.7127604  65.8131695  60.4999113  61.8734503   9.4045329  60.8057785
  61.7392588   9.9714392  61.5652800  61.4943123   8.5644144  61.0640144
  75.5480812  81.4104766  45.2807188  76.2673793  80.8048397  45.1017094
  75.6830762  82.1312082  44.6654510  38.3807659  77.5617266  59.6437931
  38.3120918  78.0805779  60.4452372  39.3222499  77.4591255  59.5048285
  75.0964689  57.3513365  57.3749638  76.0380602  57.5174856  57.4200630
  74.9354029  56.6991711  58.0568552  69.6787930   0.6382875  47.8085947
  70.5089903   0.3223073  47.4520063  69.0723658  -0.0922576  47.6870060
  62.0326471  53.1882763  47.9310465  62.6907158  53.5323715  48.5350084
  62.3276997  53.4748077  47.0667171  23.1271052  71.0812950  62.3169899
  23.9014864  71.6322613  62.4310017  22.4085212  71.6004372  62.6780367
  61.6151047   1.9131558  53.7080097  61.8866014   1.8784884  52.7907753
  62.0685816   1.1777190  54.1199827  70.9809399  21.0572886   1.5449339
  70.5639219  20.2335453   1.7974702  71.0782862  21.5382743   2.3667666
  21.8107724  56.7198038  44.9092150  22.5258708  56.2232780  44.5113134
  22.0982242  56.8744183  45.8090496  53.9403057  71.1378860  22.8356481
  54.2848301  71.9263124  22.4162197  54.4011879  71.0913134  23.6732912
  68.3124971  78.7999439  22.3430824  67.8140736  78.2581615  21.7313027
  67.7315998  78.9069843  23.0962944  43.3911657  74.2817974  70.9211588
  42.6660013  73.9346170  70.4016972  44.1553259  74.1997290  70.3505898
  21.1246252  56.9839668  33.2619643  20.4383445  57.5519896  33.6121106
  21.6472983  57.5573921  32.7014017  61.9164562  63.7387133  25.9185743
  61.7735386  63.7222958  26.8649030  62.7446651  64.2060471  25.8095002
   8.7215579   1.5027192  64.7476530   8.0557156   2.1894088  64.7842932
   8.2359958   0.7102576  64.5185995  78.0612946  39.8404241  40.7148981
  77.6979303  40.7072926  40.8958244  78.7722683  39.7418022  41.3481617
  55.9186125  67.5565624  63.5880613  55.6210136  66.8145084  63.0617332
  55.1339865  67.8531122  64.0492010  83.8889599  56.1391306  45.8047247
  83.3002949  56.8211794  45.4814434  83.3389473  55.3582954  45.8680534
  54.5193386  74.0592766   0.1321616  55.2201128  73.8945484   0.7630411
  54.6192551  73.3682823  -0.5226481  35.9188128  68.6103487  31.0287380
  35.2077436  69.2436552  30.9310818  35.5149841  67.7647924  30.8333206
  34.3242216  75.0601244  43.2086134  33.3944869  75.2320862  43.0594349
  34.7741151  75.7896996  42.7825308  70.8908367  14.3839037  21.2265158
  71.0900021  15.2186644  21.6504741  69.9520350  14.4257009  21.0444808
  49.7002029  71.5160561  70.3750420  49.2188787  70.8198357  70.8220768
  50.5601740  71.1357927  70.1959085  53.0915833  55.7728052  38.7661052
  53.6556005  55.4112387  38.0824518  53.5043192  55.5008268  39.5858049
  28.6510396  63.5653973  51.0190725  28.8237119  62.6577616  50.7688332
  28.4259748  63.5189819  51.9482803  11.0446405  20.6602550  40.0669813
  10.3626609  20.8807230  40.7014370  11.6238523  20.0601983  40.5367470
  50.0097227  71.6335726  10.0986898  49.7795868  72.5240040  10.3640354
  50.1548767  71.1681461  10.9224248  84.7099590  75.2964163  38.9129877
  85.1393032  76.0401154  38.4901357  83.8872147  75.6533432  39.2475295
  41.7612267  67.8820658  28.4551883  41.4208889  68.3775997  29.2000699
  41.7371082  66.9696045  28.7433982  48.5521841  16.8713474  22.6048541
  49.4389009  16.9802117  22.2611785  48.6567545  16.2889659  23.3572674
  50.0631189  62.1954298  53.5395145  50.8262730  62.5407314  53.0762720
  49.8609304  61.3750029  53.0897856  68.7111664  71.7247248  56.7573023
  69.3793869  72.3448324  56.4654446  67.8931761  72.2207117  56.7238140
  19.6374488  55.8309317  25.6694889  18.7051368  55.8569956  25.8847737
  19.8057854  56.6657495  25.2324867  67.5586414   0.4532199  26.1260033
  66.6289377   0.6710439  26.0593748  67.6370049  -0.3970948  25.6935048
  69.7879124  71.9082212  30.6386757  70.4738903  71.8065691  29.9788761
  68.9753437  71.9517946  30.1346278   0.8198608  47.6071882   9.4708127
   1.1047730  47.4034262   8.5800052   1.3525991  47.0400524  10.0282884
  50.9014225  68.2480192  25.0824499  51.6317081  68.1884813  25.6983829
  50.1199293  68.2267523  25.6347632  85.6171799  29.9814510  22.4820924
  85.3241825  30.8314180  22.1535444  86.3247395  29.7267175  21.8898964
  53.2225180  56.2706470  54.6237373  52.9784441  55.3711557  54.8418474
  54.1494894  56.3300467  54.8548937  39.3854809  13.7631440   7.3250127
  39.8440337  12.9641819   7.0649719  40.0501823  14.4496703   7.2694540
  43.3507156  77.6120424  16.2721252  43.8887024  77.0049620  16.7803133
  43.4214449  78.4440708  16.7400539  40.7799816  63.0668497  16.1460483
  40.0522614  63.6879110  16.1766493  41.5640783  63.6155748  16.1640620
  58.5947084  73.4768486  41.5109062  57.7321577  73.0665350  41.5732288
  58.9895535  73.0870819  40.7308960   1.6037335   7.5305319   3.5483474
   2.2761047   7.6979357   4.2087445   1.7310606   8.2200682   2.8967652
  39.8146439  57.0704031  32.8525329  39.3691158  56.3426781  32.4187636
  40.4945612  56.6536331  33.3819175  14.8983955  54.4935274  52.2967339
  14.6317506  54.2851257  51.4013577  15.8255470  54.7200727  52.2239494
  12.0042944  42.2043276   6.6694093  12.8699672  42.4553871   6.3472086
  11.4022064  42.4803448   5.9783697  44.1933727  15.3236699   4.8218378
  44.8094749  15.3460038   4.0896165  44.4220400  14.5284712   5.3030902
  59.6984911  49.5087862  43.0847311  60.3248692  49.9123383  43.6855888
  59.9764729  48.5946417  43.0273485  49.4316578  64.1779089  46.3626289
  48.6242199  63.8514757  45.9654903  49.6038055  65.0040483  45.9108639
  27.5149608  74.7484541  50.0500870  27.8594494  73.9128923  50.3653622
  26.6390014  74.8056889  50.4317284  63.1144190  14.7871351  26.2512779
  63.0529308  14.5692551  27.1813202  62.8007317  15.6897533  26.1954880
  25.0381541  40.1270437  41.9931316  25.2911758  40.8489895  42.5684643
  25.8629417  39.6909857  41.7790937  61.5655184  56.4725876  46.0445738
  62.1411800  57.2349453  45.9841442  61.2433434  56.3444138  45.1523829
  74.6236181  62.4485159  56.3529539  75.0794744  62.1029806  57.1204376
  74.6745205  63.3992147  56.4520264  46.7262268  79.7121859  41.5996265
  46.3140106  78.8482952  41.6016436  46.0056305  80.3217793  41.7589140
  60.4011106  69.3739605  38.3532786  60.7241631  68.6642456  37.7981448
  59.4788361  69.1632175  38.4989786   3.9114049  11.4972758  56.2331057
   4.1920498  10.5822325  56.2202358   3.7302265  11.7051446  55.3164816
  46.7191458  51.4363909  57.3781252  45.9785652  52.0248699  57.2316122
  47.3746967  51.7123127  56.7375374  33.7925100  63.6582136  39.1845846
  33.1918812  63.9237452  39.8809838  33.2282662  63.5074806  38.4262037
  19.7340798  48.3009768   4.0953451  20.0531006  48.8369751   3.3692858
  18.8280427  48.5829353   4.2211533  62.9805422   5.7102787  18.6425519
  62.8110981   6.4463562  19.2305243  62.5641632   5.9615338  17.8180957
  22.8866816  64.1507530  36.1907244  23.6362410  63.5616064  36.2761712
  22.9887509  64.7740698  36.9099545  59.0890646  56.0922813  51.6281271
  58.1917810  56.2407923  51.3296890  59.6338177  56.5423441  50.9824324
  74.9757671   3.6486480  32.9915237  74.5572615   4.3894193  33.4300923
  75.1939392   3.0430111  33.6999273  55.1687479  58.7588692  37.4056339
  56.0877371  58.7661123  37.6732850  55.1818800  58.4126711  36.5133309
  78.8157797  50.8620548  53.2381821  79.3724251  50.8227396  52.4604750
  77.9228020  50.8212948  52.8958845  50.9170485  68.2092953   7.6983947
  50.5078506  67.4447060   8.1036025  51.2366009  68.7290144   8.4359658
  34.8627853  70.3256607  43.6423874  34.1008091  70.8922815  43.7630892
  34.8362565  70.0825071  42.7169657  62.9258299  19.8208630  35.3815079
  62.9125261  19.9405766  34.4319177  63.3137369  20.6281233  35.7192755
  18.6542916  75.9337378  67.8873825  19.1517150  76.0947943  67.0855951
  18.3373189  75.0351620  67.7961779  43.4158039  79.0891790  35.5004692
  43.5180521  78.3420277  34.9109411  43.0841303  79.7917747  34.9413776
  43.3996344  57.7664995  35.2048421  42.6817608  58.3364105  35.4806757
  42.9683256  56.9672060  34.9026227  49.7395039  67.4349737  58.3204460
  50.0193834  68.2936478  58.0032969  49.1143751  67.1290207  57.6633024
  25.1849008  53.9688063  54.8630810  24.8664522  53.0836105  55.0398731
  25.6300712  53.8989830  54.0185785   6.5532078  56.9626735   0.4575674
   6.4503541  56.7176984  -0.4620178   7.4882187  56.8539630   0.6312554
  45.3854322  77.5983286  41.7593193  44.6940804  77.6490688  41.0992527
  45.2882099  76.7261076  42.1414280  49.4867468  61.1157370  44.4015789
  50.2218151  61.6213751  44.7483301  49.8813486  60.5345535  43.7513924
   6.3024104  33.3537006  30.9688354   5.9559488  32.7093530  30.3515744
   6.2562650  32.9187059  31.8202353  43.7288809  77.6111412  19.3780816
  44.3715000  78.2232666  19.7366595  44.2094517  76.7890549  19.2808580
  84.2507839  35.5671644  55.7482910  85.1068115  35.9902763  55.8148098
  84.4489193  34.6318817  55.7011747  62.9331779  77.4401379  64.9394560
  62.5458479  78.2213449  65.3343296  63.8766956  77.5598764  65.0474739
  33.3144975  64.2410755   0.6540200  32.3928881  64.4384384   0.4869442
  33.4289527  64.4061804   1.5899003  14.6943152  55.0347567  64.1427088
  15.1356292  54.6060753  64.8759937  14.4561911  54.3181753  63.5544538
  31.9536376  79.8331690  11.7485332  32.4899483  79.0429735  11.8133104
  32.1358562  80.3131962  12.5563717  58.2901287   3.8834241  27.9014325
  58.9678812   4.4541326  28.2636118  58.0728531   3.2857400  28.6168313
  56.2708235  55.4356432  43.5566235  55.5960417  55.0373077  43.0068684
  55.7908535  56.0338783  44.1293144  70.8012438  74.4086361  32.0126653
  70.6883287  73.6590290  31.4282203  70.7236242  74.0400696  32.8926468
   6.2728959  45.0442266  45.1978874   6.0045838  44.7569323  46.0706425
   6.8299401  44.3366098  44.8735237  56.9948339   8.1713498  43.0082798
  56.7359400   7.2618878  42.8596735  57.3166037   8.4707797  42.1579647
  35.8847833  64.5572186  29.3836164  36.0819840  65.1664305  28.6721349
  36.7409253  64.2418957  29.6731424  40.6579828  71.8281698   9.3302429
  41.0581446  71.2955332   8.6429298  40.1173592  72.4615335   8.8582164
   2.7244481  10.7929194  61.2304068   1.7924806  10.7942331  61.4487314
   2.7605650  11.1226428  60.3325129  73.3303261  52.7107096  34.3842793
  73.6266327  53.3839703  34.9967790  72.7246046  53.1676626  33.8007259
  75.8319664   7.5431174  52.3521709  75.0535297   7.4545532  52.9020977
  76.3360405   8.2460868  52.7620220  14.8176026  19.4525707  24.1541862
  15.5295992  18.8346660  24.3199778  14.5748591  19.7766125  25.0215411
  67.0954418  17.3479009  26.7916298  68.0067444  17.3478365  26.4987803
  66.7880487  18.2375669  26.6177440  48.0311966  58.1432199  20.0188351
  47.3522615  57.6374483  20.4654574  48.4909534  58.6008787  20.7226849
  27.8169060  72.2448397  29.1166043  26.9668508  72.1098375  29.5354223
  28.2088900  71.3722086  29.0835094  18.7954104  60.4852295  59.4964027
  17.9749250  60.4332495  59.0061665  18.9704895  61.4232731  59.5715809
  52.1539354   5.4113710  53.8788795  52.3184013   5.3531992  52.9377127
  51.2099648   5.5537313  53.9487171  53.1226015  11.0530150  52.7176809
  53.0891180  11.1462891  53.6697388  52.2522545  11.3181448  52.4202919
  28.4530282  61.9053650  32.6223302  27.8087950  61.1999083  32.5629640
  29.1752982  61.6177511  32.0639062  25.8585191  64.5808697  31.1324859
  25.6645536  64.4292307  32.0574808  26.2827468  65.4387331  31.1142302
  19.0946150  16.9828451  11.0760260  19.4580936  16.4256465  10.3878081
  19.0063059  17.8432238  10.6659245  77.3115158   4.5858094  62.1724653
  77.0021629   3.7375528  62.4902630  76.5343571   5.1444501  62.1856642
  84.9762249  77.7156639  57.2023487  85.5397320  78.3682013  57.6181507
  84.4632912  77.3485136  57.9223013  54.7026873  12.8039885  28.1951118
  54.2713642  12.6180363  29.0291476  54.3310785  12.1660876  27.5858307
  34.4365716  67.4510622  61.1418819  33.5672688  67.4842501  61.5411854
  34.7864842  68.3346653  61.2560654  76.3859653  37.9868770  59.2892742
  77.1250486  38.3958936  59.7394848  76.6694784  37.0860863  59.1329765
  39.8067141  78.0082560  46.3290167  40.2230263  77.9463148  45.4693174
  38.8682580  78.0160809  46.1406803  80.5539894  18.7810481  33.8000536
  81.4815235  18.5960805  33.9473486  80.4983521  19.0010226  32.8701353
   3.3067334   4.5113808  45.0794935   3.8327312   5.1199603  45.5983305
   3.1180254   4.9872854  44.2707109   6.2047243   2.9336375  13.9751065
   6.3395792   3.8004687  14.3580556   6.8464404   2.8822678  13.2667327
  22.0420909  21.9696999  39.1677403  22.9755545  21.7580271  39.1593409
  21.9414711  22.5800824  39.8981762  18.9251828  43.1952810  44.6724510
  19.5023668  43.9524460  44.7713947  18.0947638  43.4751940  45.0575256
   4.1429114   0.4051812  38.3851671   4.1548041   1.3419238  38.1886911
   3.3096531   0.2653715  38.8350177  86.0123825  23.4501696  66.7613316
  85.2838898  22.8293204  66.7528677  86.7476845  22.9517889  67.1179676
  25.5485511  11.1496675   9.1143984  25.7529712  10.3644681   8.6065555
  26.2039924  11.1611676   9.8118919  35.5874062  34.8620033  23.6747599
  35.8849883  34.5061207  24.5120311  35.6249619  35.8113623  23.7911201
  44.0186644   4.0986481  69.3557167  44.3332195   4.4662270  70.1816559
  44.8145008   3.8482508  68.8864851   4.7350651  75.1714945  34.4035029
   5.0614029  76.0712576  34.3907857   5.3962851  74.6838140  34.8946118
  49.7615862  78.6805630  34.3421912  48.8466597  78.7567139  34.6130109
  49.7569180  78.9146566  33.4140682  82.9588223  40.2012825  38.3807421
  83.2894707  41.0653400  38.6263299  82.4530220  39.9135017  39.1407251
  78.9488077  20.1829338  47.1301222  78.8935757  19.4111335  46.5666437
  79.3457699  20.8555722  46.5767574  60.8895588  10.2702141  23.9548182
  61.7458677  10.6506455  23.7592697  60.9322643  10.0497460  24.8853040
  84.7323704  78.8897038  65.9727144  85.6478596  78.6206293  65.8971024
  84.6339512  79.5885849  65.3261042  32.8156161  28.6632586  53.8124371
  33.4587431  29.3658185  53.7174129  33.3023715  27.9463530  54.2190647
  32.8870487  40.9642649  39.2880058  32.0511937  41.3104820  38.9754176
  32.6930833  40.0614882  39.5401978  73.7863922   9.3260115  29.7583199
  73.9358950   9.9105763  29.0152407  74.4318438   8.6279082  29.6475244
  48.2641029  19.4225681  14.9990785  49.0399122  19.2815304  15.5417228
  47.6052475  19.7596288  15.6061471  64.1376305  50.7083654  42.8647804
  63.7702131  50.9210110  42.0068645  64.7554493  51.4173841  43.0431604
  36.1295342  17.4883831  14.7749281  36.9515848  17.0304251  14.5996022
  35.5753040  16.8323219  15.1975918  44.6132612  54.0185785  36.5685487
  43.6583519  54.0300608  36.6337228  44.8952770  53.4479475  37.2834492
  26.6547847  34.7589922  31.2707019  27.1376991  35.2782106  30.6277084
  26.0756111  34.2063093  30.7459807  23.6191130  48.2736158  30.9393620
  23.7912440  48.6250305  30.0658011  24.2184329  47.5317907  31.0214782
  44.8241425  71.0794783  24.2605782  44.1234732  71.7006588  24.0620041
  44.7521257  70.9305620  25.2033782  81.8776417  23.3834839  44.8675776
  82.6152992  22.8553033  45.1727152  81.2623978  23.3819127  45.6008625
  41.5313526  33.3632658   0.4097788  42.1522327  32.7303217   0.0490610
  41.5816732  33.2350062   1.3570111  38.0862546  72.1744061  59.6617126
  37.7715397  71.8296194  58.8260651  38.8273048  72.7327919  59.4265842
  34.5606160  62.7676773  25.2895999  35.1367784  62.0828199  25.6290722
  34.9363899  63.5830784  25.6214857  11.6959918  14.9279833  38.3549809
  12.6005256  14.8234713  38.0598116  11.6459191  15.8348596  38.6571407
   5.4957741   2.7008572  53.6179447   5.8886826   1.8394008  53.4774160
   4.7336641   2.5291634  54.1710615   8.2553166  70.0581551  38.0415416
   8.6760944  69.3494415  38.5282683   7.8647149  70.6132603  38.7164664
  66.9380474  24.9219322  56.4406347  66.7383194  24.1273212  55.9457254
  66.1189556  25.1390648  56.8858051  45.9934187  59.0971851  14.5645881
  46.2782001  58.3699894  15.1180518  46.3713074  59.8740959  14.9767065
  72.4623013   3.8073927  53.1098127  72.8385115   4.5530686  53.5774326
  71.6661835   3.5958648  53.5973454  18.6340451   5.9310657  51.7022848
  18.0429089   6.2598366  52.3795605  18.4558737   4.9913558  51.6644335
  59.2602396  14.4591630  32.2765517  60.0752878  14.4077456  32.7758360
  58.9104748  15.3271627  32.4777293  26.3295412  31.7920399   1.9524540
  25.8378077  32.0985842   2.7143335  25.6734085  31.3699198   1.3978955
  37.2986794  79.7828531  32.6139688  36.4617729  79.8530149  32.1547389
  37.1259522  79.1781473  33.3355832   7.7192956   8.6084884  36.5287781
   6.7942458   8.6860931  36.7622137   8.1283641   9.3857187  36.9093132
  18.3830011  13.3091164  61.4360809  19.1857767  13.6725497  61.8098450
  18.6412132  13.0015135  60.5672073  35.0940323  78.8018417  37.5380301
  35.6195831  78.0944586  37.9117060  35.5295706  79.0133381  36.7123151
  48.5572052  70.7011604  61.0446215  49.5079851  70.5910969  61.0327435
  48.2923794  70.5950308  60.1309299  60.1664972  72.5651598  43.4955025
  59.4541836  73.0715418  43.1050968  60.1830673  72.8420401  44.4116354
  19.2356098  80.3222942  61.1621761  19.8499906  80.1616478  61.8783855
  19.7798276  80.6605911  60.4511118  12.3079789   8.8795781  39.9688649
  12.6313412   8.9933646  39.0751529  12.3760581   9.7501713  40.3608656
  24.2934442  68.5265541  36.2860870  23.8839793  69.2749214  35.8519030
  23.5659933  67.9363823  36.4829230  28.5265017   1.7516518  49.4507694
  29.4689369   1.8568675  49.5810604  28.4462643   1.3782981  48.5730457
  63.7853384  25.3585505  62.4695539  63.0906057  24.9033189  62.9453039
  63.3239651  25.9927082  61.9207287  47.2241068  79.2047262  49.2210674
  46.3012695  79.4581366  49.2407131  47.2144365  78.2553530  49.3428516
  78.1836891   3.7017035  25.6850719  77.7784157   4.1541049  26.4248824
  77.6679039   2.9020154  25.5816483  16.5391123  60.1321507  37.5202847
  17.1351850  59.5084047  37.1057153  15.9896398  59.5951557  38.0912018
  31.6991997  30.7753158  64.6702957  31.7164636  31.6936922  64.4010067
  32.4706054  30.6747127  65.2280140  -0.0236003  13.9484954  33.2367778
  -0.0563494  13.2090652  32.6298165   0.2969774  14.6787965  32.7075124
  61.3885498   4.7221500  24.2417431  61.5238285   4.0356138  23.5885954
  61.9709301   4.4844347  24.9632406  15.8182836  42.1998644  52.1046638
  15.6433439  41.3162422  51.7808723  15.7548356  42.7563238  51.3284159
  69.7628641  69.1856050  25.2749729  69.2055607  69.4053459  26.0215402
  69.1577816  68.8434410  24.6169186  80.0563622  14.1718054  36.0387731
  79.6031570  13.8646138  35.2536178  79.6780109  13.6561251  36.7509222
  69.5845461   2.9723027  55.3196764  68.9812565   2.8658646  56.0551691
  70.4126167   3.2303959  55.7245445  71.1466503  47.6220465  61.4474583
  70.7990837  46.8039656  61.0922432  70.3863859  48.2008982  61.5036392
  75.0105095  43.5106802   1.7297235  74.6043205  42.8375959   1.1836427
  75.9129238  43.2130861   1.8451235  65.7578564  68.4838152  36.7304254
  66.6570091  68.5956049  37.0390773  65.7026577  69.0340805  35.9491515
  60.0472641   7.5446987  56.3897276  60.1118231   6.9450051  57.1329880
  60.0544691   8.4167719  56.7842770   4.8572192  24.0330601  40.9260368
   4.5124611  24.5722675  41.6378164   5.4975933  24.5943642  40.4889011
  82.5004005  23.2903934  22.7393889  82.7697659  22.7510357  21.9959068
  82.4019432  22.6703143  23.4619141  63.4775162  63.5748482  42.6580667
  62.9526949  64.3107462  42.9731035  62.8385830  62.9668808  42.2860909
  68.6374140   8.4696871  26.7759442  69.5343733   8.1516397  26.8786454
  68.5688257   9.1968650  27.3946047   6.5105706   4.9048418  17.1683955
   6.5756327   5.6204927  17.8007269   6.7779237   5.2953392  16.3363707
  78.3070183  72.3709631  66.0499525  78.9266539  72.7369595  65.4188204
  78.5576487  71.4502430  66.1253500  11.0541201   2.9018068  47.7002525
  11.8943250   2.8075755  48.1490374  10.7418942   2.0042677  47.5854921
  86.5759754   1.8941855  23.6173391  86.1357880   2.5516617  24.1560340
  86.1027718   1.9102767  22.7854419  66.8454123   3.0450252  31.9626355
  66.7955065   2.8441885  31.0280728  66.4752865   2.2744665  32.3933077
  73.9560986  80.2104187  52.0606518  74.6175766  79.5272112  52.1697617
  73.4035969  79.8967171  51.3447142   1.5696912  26.4433956  45.4086590
   2.3544955  26.3060522  45.9391785   0.9107579  25.8722568  45.8034277
  25.7198715  46.3627911  55.1801300  26.1052394  46.1984396  54.3194866
  25.9872723  45.6116009  55.7096958  10.7044315   8.7410450  51.1165142
  11.1637795   7.9446256  50.8501530  10.7618928   8.7424982  52.0719862
  23.1862664  18.8907766  41.8076897  23.9629292  19.0066063  41.2603235
  22.4512839  18.9608538  41.1984921  14.1389954  57.2717619  45.8516979
  14.8811722  57.4324083  46.4344454  14.2540383  56.3670015  45.5611801
  73.8171005  75.7069206  65.5837393  73.9952898  75.2216625  64.7781324
  74.6608114  75.7407618  66.0345602  40.3536129  78.8678694  48.9099789
  40.0055742  78.6720800  48.0400515  41.1719513  78.3735895  48.9573622
  65.6361628   9.9779028  68.2183266  65.0250483   9.6795458  68.8919401
  65.7515335  10.9113491  68.3960867  40.8447170  17.2869194  69.8020649
  40.9967995  18.0499911  70.3595829  39.9452901  17.3923028  69.4919682
  60.2606010  64.0891743  51.7258978  60.0344372  63.1591654  51.7384911
  61.2147474  64.1046667  51.8007421  80.3064632  54.3133163  37.5260472
  80.3474522  53.8899803  36.6685295  80.1803112  53.5925817  38.1431818
  82.7175045  21.4415646  52.4627829  82.7774906  21.4576316  53.4179640
  81.8369102  21.7650199  52.2726250  69.2006826  15.2872181  24.2058468
  68.7549210  15.5180991  23.3908486  68.7524986  14.4974518  24.5085502
   2.2015378   3.1779236  64.8231792   2.8559783   3.2902923  64.1337490
   2.7036911   3.2092163  65.6374836  39.4523740  11.5897655  64.2085743
  39.6439934  11.1878014  63.3612633  39.6394682  10.9021616  64.8476601
  60.9832048  54.9009705  23.4473944  60.1444721  55.2014971  23.0974746
  61.6391611  55.3211975  22.8911948  85.1001930   0.5933021  11.8208909
  85.2676010   0.2006011  10.9641576  85.6412697   1.3828199  11.8323255
  60.3543425  70.0408602  50.9974813  59.7359180  70.7416439  51.2040854
  59.9133301  69.5231056  50.3239346   5.5907369  14.3140507  14.2787528
   6.3015711  13.7989962  13.8970912   5.2319437  14.8095322  13.5425484
  25.2527571   0.9299208  50.7587290  24.6099472   0.2601052  50.5255461
  25.6591129   1.1719302  49.9265432  70.8947515  73.4456968  38.5231566
  71.1011505  72.7519989  37.8967214  71.6065311  73.4108734  39.1622114
  45.0134325  80.5184841  37.4215627  44.3530321  80.1119232  36.8604755
  45.0851679  79.9293709  38.1725860  43.6943483  78.1981325  60.8251476
  43.9766026  79.0633345  60.5285215  44.4493151  77.6319313  60.6649208
  73.3099604  14.6276855  10.4858947  72.9561090  15.1737320   9.7838587
  73.6711168  13.8637483  10.0362313  36.7768717  59.0083599  49.8990393
  37.3196745  58.5392475  49.2653751  35.8852911  58.7114811  49.7168875
   3.1458437  70.8098412  62.7051640   3.3008164  70.8449841  63.6490822
   3.7221727  71.4826202  62.3426104   8.4285450  49.9513388   0.7376526
   8.0551040  49.2967272   1.3277838   7.6687330  50.3907728   0.3557942
  47.6175928  71.0027695  24.0421200  46.7622614  70.6174612  23.8519239
  47.7781582  70.7877970  24.9609447  64.6177101  61.0560846  37.4617815
  65.5242443  60.9203768  37.1860766  64.1420269  60.3101015  37.0964456
  15.7599652   5.6642461   8.8372284  16.1398160   4.7898334   8.9229465
  14.8515379   5.5595392   9.1201204  24.0939617   2.0530936  31.7354536
  24.5262504   2.1952114  30.8933353  24.8095274   2.0274711  32.3706985
  56.4024401  64.5758486  62.6037741  56.8956280  64.9702024  61.8844128
  55.8200216  63.9466143  62.1782255  57.7400160  67.6408243  41.9401741
  57.0463991  66.9812202  41.9329405  58.2270956  67.4850798  41.1310196
   3.0909491  24.1187072   6.8707430   3.3692047  23.3542418   7.3751247
   3.9056414  24.5718575   6.6535729  65.0861835  50.0833368  48.8042736
  66.0308170  50.0351954  48.9511871  64.9342299  50.9832716  48.5157156
  70.0434923  27.4779820  48.4539747  69.6353102  28.3436513  48.4693813
  69.3732071  26.8908715  48.8036203  68.1674337  65.7881975   6.3337910
  69.0492010  65.8791208   6.6949755  68.1009579  66.4888096   5.6849778
  69.7687149  73.6883211  61.1557150  70.1342487  74.0954685  60.3703165
  68.8255787  73.8357735  61.0851097  84.8620510  50.2561378  49.2787313
  85.5632496  50.5225611  49.8733473  85.3164959  49.8657274  48.5322094
  27.5581026  81.4566803   9.5611632  28.2638621  80.8204842   9.6768725
  26.8329048  81.1066723  10.0786698  49.2764473  72.8625631  50.2590322
  49.1485929  72.1025991  50.8267832  49.9864817  72.6053715  49.6708632
  15.3702509  21.4535689  50.2017403  14.4161367  21.3985014  50.1482058
  15.6561029  21.5474820  49.2930603  40.0669861  14.1429961  17.6945245
  40.0043964  13.1946969  17.8087306  40.0564003  14.2712224  16.7460108
  85.6933784   8.3583379  41.6928482  86.2646294   8.1552958  42.4335814
  85.2287102   9.1516823  41.9591570   0.3512657  77.9297304  46.2180281
   1.0195863  78.3784723  46.7359209   0.8433742  77.4743128  45.5349064
  84.4932556  58.5924196  17.2937989  84.6797943  58.4983397  18.2279217
  84.1422081  57.7410460  17.0327282  37.4993539  41.2893867  59.0176964
  36.6726351  41.0889482  59.4565487  37.9033351  41.9634581  59.5641947
  22.9064870   6.4216268  54.5157862  23.7558413   6.1151856  54.8334694
  22.4936962   6.8200058  55.2820301   5.0451946  70.8317709  11.7970836
   5.1928329  71.7463875  12.0377350   4.9677664  70.3734398  12.6338446
  65.0585508  79.9071407  53.4918642  64.3108559  80.0375652  54.0751076
  64.6736288  79.5818663  52.6780701  86.5273094   3.0317494  67.1392727
  85.6532860   2.8692812  66.7844248  86.5385342   2.5615990  67.9729795
  74.3628693  34.8244143  42.4650908  73.7071943  34.9001813  43.1583309
  74.0089417  34.1616178  41.8720770  44.4556952   5.8369803   1.1506645
  44.0798140   4.9627411   1.2538649  43.6988640   6.4228219   1.1354189
   9.8088861  65.0046206  40.3475857   9.0737253  64.5114613  39.9834919
  10.3943670  65.1459646  39.6036339  13.0739677  28.3943415  29.9183035
  13.0827999  27.5433612  30.3564668  13.9783669  28.5268307  29.6341538
   7.2153491  46.1925888  63.5020876   6.9531649  45.7423735  62.6990938
   6.5222859  45.9866285  64.1293621   1.7861439  20.5016565  21.5285182
   2.2775063  20.3244328  20.7264042   1.0472254  21.0389590  21.2429714
   2.9020345  20.8159995  35.4021668   2.5208765  21.5497470  35.8844161
   2.1495956  20.2874780  35.1362109  73.0765915  23.3409619  33.8147163
  72.3980713  22.7541065  34.1485453  73.8903141  23.0041099  34.1897082
  21.5125966  52.1867657   2.0699613  21.4131451  52.7592087   2.8306508
  22.0818520  52.6752806   1.4753748  85.0685310  63.5861683  48.3106756
  85.3801823  64.3940210  47.9026604  84.1905785  63.4594059  47.9509974
   7.9778773   9.3433470  22.3362923   7.7898049   8.4148079  22.4729514
   7.4221474   9.5942140  21.5984154   3.0661339  54.1117668  17.9335976
   2.3973313  54.3599510  17.2953665   3.3841151  53.2618284  17.6290870
  62.8108597  64.0366077  28.7567854  63.4170723  63.3311415  28.9827490
  63.3288193  64.8362446  28.8491154  80.1950550  78.4989977  28.5086703
  80.3047752  78.2023525  27.6052356  80.8428192  79.1960716  28.6122155
  70.2745485  49.5844507  17.9805601  70.8169317  48.9874697  17.4651349
  70.4998541  49.3880701  18.8899028  39.2906809  13.8102424  41.9636869
  38.7015057  13.8701975  41.2116861  39.2077947  12.9042566  42.2612619
  23.6206317  32.7652335  52.5042105  24.5016813  32.5863123  52.1756172
  23.7234950  33.5411239  53.0552483  31.1969495   8.3749294  35.1821780
  30.8091664   8.4679598  34.3120050  31.8492842   7.6818049  35.0808358
  31.9190621   2.7400705  43.9751625  32.5732708   2.1369697  43.6222982
  32.1670604   2.8523025  44.8928404  40.5756283  73.7155199  45.4029846
  40.9081650  72.9897308  45.9310770  39.8382521  73.3422184  44.9201250
  80.0926399  21.0421538  44.1192341  80.5838776  21.8511486  44.2622471
  80.7125759  20.3446603  44.3323517  85.5270672   3.6764577   1.9510065
  84.6354485   3.3282951   1.9559778  85.9578705   3.2422122   2.6872641
  60.3663254  68.3490038  53.1637001  60.4119062  68.9032698  52.3846340
  59.4299126  68.2651424  53.3435249  80.1368904  25.0029254  38.1466866
  80.0642204  25.5338168  38.9398456  79.9478436  25.6118441  37.4327469
  62.8493738  55.4679918  42.9088926  63.6398029  55.2231979  42.4277163
  62.8318834  56.4242458  42.8701353   3.9999604  22.3549032   8.6364228
   4.5873097  22.8546762   9.2034143   4.4456726  21.5175271   8.5084647
  65.8643198  77.1967554  37.2541070  66.6028118  77.3284960  37.8486681
  65.6790400  76.2591171  37.3063946  62.7664948  76.7434978  57.6429129
  62.5941229  76.9903660  56.7342997  62.0035696  76.2253237  57.8991795
  67.4320984  75.1939917  61.1225367  67.5198746  75.5051231  62.0234919
  66.7511415  75.7491875  60.7426882  28.0846071  30.6173491  33.2767844
  27.3359561  30.0233269  33.3305097  28.8240600  30.1002502  33.5962367
  28.1937718   6.2310654  13.9685738  27.4657369   5.6187600  13.8623869
  28.0426168   6.9008672  13.3016777  45.0510555  61.7687557   0.3183405
  44.1446358  62.0272873   0.4850714  45.2363163  62.0985721  -0.5609424
   2.1887648   2.3454477  19.0961683   2.0085885   3.2739824  19.2431080
   2.5011417   2.3021761  18.1924093  26.9431376  17.7449918   9.7414088
  27.2995567  18.2863486  10.4457736  26.7860484  16.8936312  10.1497459
  19.0029097  38.1694150  29.0348911  18.2763493  37.6325703  28.7184453
  19.7875476  37.7176023  28.7243462  39.7840023   6.7928904  50.8577728
  39.0814257   6.5538871  50.2532101  39.3702388   7.3887330  51.4822769
  13.7968051  16.4274848   5.3066200  13.7204230  15.9561121   4.4770390
  14.4943547  17.0654833   5.1562369   7.6568741  75.1267624  56.8727016
   8.5770857  75.1445818  57.1356153   7.2622383  74.4539785  57.4275494
   4.5844978  23.8829875  14.2166674   4.0058973  23.3531666  13.6682653
   4.0192342  24.2073536  14.9177337  29.6822119   8.9694703  26.3919640
  29.3924475   9.6931833  25.8365273  29.2429662   9.1193241  27.2291255
  58.6427116  47.4974871  63.6259270  59.2161179  48.2525969  63.7572289
  57.8622007  47.8595114  63.2064390  75.9859562  33.5531545   6.2435490
  75.0552416  33.4700608   6.0359442  76.4202261  33.5783434   5.3909016
   3.0575120   9.0572625  20.3633499   3.9951858   9.2440450  20.3173876
   2.8968880   8.4570259  19.6352386  70.8327055  80.0586891  62.8663254
  70.1233578  79.6782017  62.3483610  71.2758017  79.3049192  63.2558393
  37.5834560  30.7546377  61.4506960  37.5419664  29.9443555  60.9428072
  37.9973054  30.4995537  62.2752523  30.4416847  27.7965188  27.7349758
  29.8787618  27.7834129  26.9609094  29.9215770  28.2449222  28.4017992
   7.9601955  16.8801236  23.3151197   8.0831915  16.9425261  24.2623305
   8.7535661  16.4481997  22.9985166  18.2551050  14.3517447  24.7717834
  18.3086336  15.0188923  25.4560947  19.1330290  14.3281424  24.3910956
  82.9391670  69.1892147  24.8190618  83.1627750  69.5814085  25.6631088
  83.4683609  69.6709871  24.1833854  81.9104004  73.2264662  33.1395674
  81.0296917  73.1330776  33.5027027  82.2661781  74.0033865  33.5708952
  71.0356331  17.4272633  61.7396879  71.3951635  18.3017504  61.8888187
  70.6796551  17.1665907  62.5891352  28.3074570  24.8328280  33.0619669
  28.5396981  24.1374111  33.6773491  27.6582241  25.3588653  33.5288882
  71.5462303  80.4175377  42.4017191  71.9825649  80.4720116  43.2519436
  70.7547140  80.9459114  42.5044203  38.7297797  65.3908300  46.4442348
  38.9730072  66.2339497  46.8266296  38.6971664  65.5557060  45.5019093
  59.9699688  74.4559050  16.3853443  59.4129801  73.8423109  16.8644023
  60.4157400  73.9155722  15.7329917  31.6481209  19.9343920   5.5200613
  31.8403220  19.8971093   4.5830977  31.7186236  19.0266049   5.8153301
  68.8742924   6.8255883  46.4280653  68.4886217   7.6876730  46.2721872
  68.2141495   6.3566083  46.9384575  62.8367424  21.8913984   0.3471433
  62.6711464  22.5980353  -0.2769352  63.7772179  21.9389701   0.5188186
  28.1160355  16.9122267   2.4590272  27.9251599  17.8345561   2.2884203
  27.7807188  16.7576194   3.3421421  50.1279545  17.7811337  19.3627501
  50.0108385  18.2384515  20.1954412  49.9993229  16.8570888  19.5768213
  74.1191673  71.1845112  25.7723689  74.0286732  71.1395121  24.8205209
  74.8533201  71.7818832  25.9151864  12.8520548   9.3577164  37.2283363
  13.2460082  10.1093805  36.7855787  12.1674275   9.0589631  36.6297841
   5.4088169   3.7812674  23.9230442   4.5335236   3.6672473  24.2933059
   5.4889160   3.0794430  23.2770872   9.0330082   5.9354091  42.9045153
   8.7780154   5.9585130  43.8268375   9.8669785   6.4042807  42.8747654
  11.4765978  47.7001572  67.7967596  11.5665781  48.2437992  67.0140743
  10.8041465  48.1393862  68.3174467  31.0818386   1.7873102  31.8323708
  30.6579924   2.5214285  31.3877845  30.3646493   1.3210601  32.2618842
  18.3372486  19.9399602  21.4661121  18.8020670  19.6941781  22.2659659
  18.6456513  19.3163764  20.8086443   4.9967521  14.6042585  37.6245356
   5.1641351  15.3050101  38.2547426   5.8001339  14.5507193  37.1069026
  69.5930099  78.4209156  29.9667048  70.4279613  78.7921095  29.6815658
  69.6180439  77.5135660  29.6628523  47.5786781   8.0677032  21.9871950
  47.1241760   7.4747574  21.3888001  47.9150534   7.4982202  22.6791263
  70.7693386  34.5366430  68.8073397  71.6996670  34.7607183  68.7846184
  70.5648994  34.4567847  69.7390366  79.4001436  75.7413864  39.7464371
  80.0619411  75.5133057  39.0935707  79.3872499  74.9948120  40.3453493
  70.3994417  64.9602175  65.4639626  70.3633451  64.0928125  65.0607967
  70.1521778  64.8106718  66.3765001  34.9091911  59.4610977   0.1923381
  34.4667125  58.9389133  -0.4768173  34.2220521  59.6726036   0.8242695
  44.9862099  13.0410123  27.1225381  45.2733374  12.1279943  27.1361232
  44.0321159  12.9929626  27.1828079   7.8899086  48.6938953  62.3820877
   7.5992489  49.4175816  62.9370880   8.0648887  47.9784918  62.9934883
  84.3140125  25.5755854  35.7558179  84.1859913  25.6755686  34.8125029
  84.0973091  24.6598840  35.9312105  15.0136375   5.6346846  63.5666323
  14.8762488   4.6881971  63.6055851  14.2552269   5.9672368  63.0865717
  58.4402466  63.3996344  32.1091890  58.4563255  63.3333158  33.0639529
  58.4437799  64.3407297  31.9343734  46.7684841  63.4359884  45.1906538
  46.3887501  64.2996407  45.3523350  46.1566257  62.8247261  45.6007957
  64.9669647  65.8453751  52.3814631  64.4289064  66.6284895  52.4974632
  65.7761049  66.1674070  51.9841957   5.2333879   4.9827918  46.9483948
   5.2840024   5.4818320  47.7636433   4.7401196   4.1957295  47.1795893
  50.0494051  81.3568306  16.9939923  49.6075296  80.8169651  17.6493692
  50.8968067  80.9309006  16.8646562  33.4566903  72.4643135  38.3503604
  32.7683377  72.0063353  37.8680134  33.2562757  73.3925676  38.2303143
   6.0902154   5.4781377  39.2357707   5.2712822   5.9699881  39.2962980
   6.2329084   5.1407737  40.1201105  16.0943747  61.7138338  28.9420581
  16.5899217  61.0935307  28.4073734  15.7965481  62.3797274  28.3222866
  84.2938423  68.9021063  30.5110002  85.0870609  69.0946150  30.0110197
  83.5830784  68.9906502  29.8760128  85.7475853  20.3755379  40.9864473
  85.4086399  21.2082005  41.3151169  86.6868305  20.5251455  40.8784962
  34.9639630  67.2890615  11.9403672  34.0104008  67.2425079  12.0095301
  35.1239181  67.6298618  11.0603094  35.7047153  16.5103388  39.7781372
  35.7514238  16.5985203  40.7301235  34.7694349  16.5538490  39.5791698
  24.1446185  17.3391187  13.3375907  23.5470581  16.6106522  13.5063827
  23.5758209  18.1067133  13.2784343  13.2545972  38.9071369  48.5592556
  13.2041204  38.1411719  47.9874325  14.0169179  38.7420082  49.1140842
  67.4191904  53.9485836  40.3898478  68.3323097  54.1749334  40.5665207
  67.3572350  53.9310837  39.4348168  53.4030151  11.1029875  63.2383204
  53.5905886  11.7852509  62.5936747  54.0883017  11.2028980  63.8990974
  33.2790875  33.6994314  58.4088135  32.8225398  34.1215897  59.1365337
  32.7929640  32.8885484  58.2591963  41.2662554   4.2436916  31.6048312
  40.3100920   4.2529160  31.6483498  41.4854813   4.9547833  31.0027337
  36.5675426  14.9623358  51.0933590  36.1454415  15.8056951  51.2570906
  35.8420539  14.3433690  51.0110378  76.2879848  73.6489248  37.9993391
  75.5076647  73.6992073  37.4472499  76.5529394  74.5603561  38.1231236
   8.6078441   7.5249237  28.5954332   8.0326700   6.8746382  28.1922770
   8.0331260   8.0282980  29.1721010  83.4022522  45.4350090  37.0474076
  84.1931057  45.0197887  37.3914695  83.4465694  46.3362455  37.3668337
  18.0360818   4.4040099  13.3009779  17.1980524   4.8579323  13.2121348
  18.6546099   4.9447289  12.8097785  11.7089736  61.4283752  53.0209208
  11.0542309  61.2485075  52.3462439  11.2408638  61.3079309  53.8471174
  76.5589237  10.5434763  32.8372169  75.6903028  10.9447777  32.8634429
  77.0289278  11.0336006  32.1625996  73.3880138  69.2319393  40.3520060
  73.6638260  70.0935888  40.6646109  74.1710615  68.6869621  40.4298782
  73.3880758  34.1254926  49.2189741  73.4951353  33.1865096  49.0670538
  72.4636412  34.2937851  49.0364122  38.1128001  34.1202259  21.1248446
  37.7829480  34.1690111  22.0220900  38.6769223  34.8882866  21.0349512
  46.4641905  70.0410604  36.1144423  47.1908379  70.3390598  36.6616249
  46.5482426  69.0876245  36.1030841  27.2180271  67.1017027   7.3607248
  27.2360349  67.9318047   6.8844461  28.0708766  66.7050791   7.1830535
  22.7060628  11.2325573  19.4036341  22.6607299  10.3902400  19.8560476
  23.5518050  11.2185657  18.9555752  40.2868843  20.2142811  50.0886059
  39.6734595  20.8837318  49.7856569  39.7458744  19.4357038  50.2203512
  12.0083940  14.7673202  57.6862001  11.6605163  14.2363834  56.9697380
  12.4839163  14.1449857  58.2364845  85.5957222   0.2386467  50.9022141
  85.1226521  -0.0412296  50.1185608  86.2714767   0.8322740  50.5748224
  72.3318195  78.0070257  63.9815235  73.2627678  77.9462433  63.7673521
  72.2716475  77.6864004  64.8814201  43.1791401  35.8906126  35.6298208
  42.2787142  35.5787706  35.7205033  43.7059259  35.2395105  36.0932803
  82.2559452  57.0820379  33.5993934  82.9939365  56.9704628  34.1986799
  81.6659546  56.3578844  33.8085556  56.1850834  57.1220922  22.7012658
  57.0289612  57.4031401  22.3475409  55.9379053  57.8167582  23.3116508
  14.0211511  31.6155910  29.6751165  14.5393538  32.4043441  29.5152235
  13.1858659  31.9416165  30.0101376  71.2255192  51.6732025  13.2025194
  71.3542032  52.6216173  13.1890929  70.2863932  51.5568542  13.0585325
  12.9300642  51.4652681  17.1224666  12.8633773  51.0910416  18.0009532
  13.6423862  52.1014452  17.1865714  38.7711501  44.3554020  37.9909468
  38.2901597  43.8409138  37.3427343  39.6751142  44.0495300  37.9166341
  85.2463627   9.9394828  17.0861065  84.5026684  10.4556215  17.3971522
  85.9823227  10.2316356  17.6239121   5.9721148  14.8069286  34.6187115
   6.2729228  13.9395356  34.3478298   5.0798464  14.8683143  34.2776537
  36.6984820   3.4199175   4.5687824  36.2403321   3.4994829   5.4054415
  36.1035395   2.9118487   4.0172923  20.2911663  10.2261996  35.8533025
  19.7775197  10.5398405  36.5976334  20.6813765  11.0171330  35.4812908
  36.2127304  45.0458717   6.7031795  36.3782001  45.5259037   5.8917469
  36.9975877  44.5129395   6.8304938   5.4466951   8.5600054  17.2944343
   4.7141454   9.1548485  17.4549472   5.0754070   7.8634650  16.7529476
  82.6303577  78.8900328  60.4604959  81.6994858  79.1027832  60.5271912
  83.0253506  79.6655750  60.0620699  25.4018259  35.2030635  28.0582762
  26.2268686  35.6283331  28.2921147  25.5593061  34.8369884  27.1879768
   9.1279906  78.3211517  45.3163195   9.6900791  77.8986502  45.9657621
   9.6210885  78.2619762  44.4980383  61.9910145  53.6986256   6.0791010
  61.5894985  52.8578472   6.2984574  62.8587341  53.4699917   5.7459092
   3.7151185  12.5632250  24.7127414   3.7005848  11.8233383  24.1056275
   4.1664043  12.2283840  25.4876328  17.2592819  14.2540824  57.3142338
  17.3226368  14.5375121  58.2263136  18.1661701  14.1071510  57.0455360
  60.2931118  79.4026756  48.6298752  59.6019363  79.0244818  49.1734552
  59.8753071  79.5538425  47.7820396  16.6187966  11.9185042  34.9697304
  16.4622045  11.7411196  35.8972239  15.7530677  12.1209502  34.6151018
  14.7578526  18.0624485  21.7415786  14.6982825  17.1630979  22.0638394
  14.8426962  18.5950983  22.5323510   1.1925227  16.3427174  32.1450734
   0.9197798  17.0251524  32.7583623   0.8374272  16.6229510  31.3015056
  11.6277361  14.2300403  35.6315589  11.2694967  14.4283545  36.4967585
  11.4106095  14.9965727  35.1009798   1.7556438   6.8619817  52.3812151
   0.8484304   6.6551542  52.1566772   2.2702233   6.1772931  51.9538498
   6.7659515  12.6274645  20.7852578   6.7382586  13.4249341  20.2565742
   6.7586696  12.9395974  21.6901088   4.3793866  71.4024496  21.4614940
   5.0368977  71.9368029  21.0160995   3.9186224  70.9509373  20.7543397
  17.7477944  14.6653759  41.8462086  17.2702932  15.2304113  42.4536276
  18.6268520  14.6011794  42.2195292  27.8657722  79.6722317  20.3502202
  27.4376130  79.4864082  21.1859107  27.3294687  80.3588581  19.9537897
  72.0441818  21.8203831  55.1530743  71.1693048  22.2053790  55.2040768
  72.0322704  21.3046503  54.3467808  17.6574361   7.7595001  32.2845912
  17.8029132   8.5975116  32.7236867  18.3808637   7.2061068  32.5789404
  68.3910370  71.0108089  16.9936037  68.3426094  70.0706291  17.1666491
  68.4771156  71.4095974  17.8595078  71.8035078  78.8252020  13.5648537
  71.7794371  79.7787619  13.4850085  72.3124170  78.6641502  14.3594027
  84.4431114  35.0609374  34.6334195  83.9979362  35.0056744  35.4789972
  83.7404442  34.9876332  33.9875698   6.4934766  41.2918854   5.6581819
   5.6851888  41.7688322   5.4699558   6.3596201  40.4293251   5.2653694
  48.2552767  29.2827058  61.9329262  47.5889874  28.8307667  61.4152002
  47.8945160  30.1576567  62.0762587  34.0222144   0.2609157   0.1826623
  33.4921548  -0.4863930   0.4598065  34.6890634   0.3473473   0.8638919
   7.4419969   3.9672139  37.6179481   8.0992305   4.6068743  37.3438859
   6.7149782   4.4963777  37.9460669  45.6509447  77.7042007  26.1109829
  45.7024336  76.8318605  25.7203388  46.5277386  78.0704594  25.9955430
  62.5141478  26.8847656  20.1208758  63.4466982  26.6702557  20.1447535
  62.3607540  27.1870255  19.2256987   9.1796517  56.8077850  46.6431713
   9.9110806  56.6363478  47.2363424   9.3850821  56.3017082  45.8570957
  37.5315905  53.0184174  29.8640370  37.0731878  52.4830341  30.5116940
  37.8132987  52.3952579  29.1943049  79.0342808  27.6224589  20.7978678
  79.5012665  28.4385252  20.6184506  78.3044577  27.8827167  21.3598776
  82.2251606  50.4499483  57.5159359  82.2020721  50.8977556  58.3616114
  81.5016174  50.8347511  57.0213223   2.2551337  14.2747986  45.4271603
   2.3370555  13.8823640  44.5579576   2.7481797  15.0931072  45.3679323
  23.6231732   3.9769101  13.6931908  22.6810169   3.8105640  13.7232232
  23.7633705   4.6763182  14.3314743  19.2708433   6.9588327  19.3599415
  19.0906858   6.1306292  18.9151347  20.1403022   6.8410248  19.7425568
   4.5211667  46.5779734  22.7573681   4.3562818  45.7230282  22.3597312
   3.6514241  46.9111681  22.9781866  84.7095108  25.6576037  32.7098870
  84.8098755  24.9309182  32.0949984  84.3648434  26.3752079  32.1784019
  22.6446080  35.5974483  14.3829834  22.7041912  35.7220078  13.4357941
  22.6121664  36.4850974  14.7397149  29.4940853  25.4275537  49.1069174
  28.8942409  25.3476787  48.3652687  28.9622116  25.2029943  49.8704052
  60.3326130  15.4328275  13.6495018  60.8935595  14.7915041  13.2132947
  60.9401512  16.0873914  13.9939940  27.6844788  19.3185389  27.8550124
  28.4555221  19.8782241  27.9470778  27.3358297  19.2431152  28.7432623
  23.0463099  18.7289381  23.3525133  22.4318051  19.4256330  23.1217957
  23.4899497  18.5190248  22.5307155  14.6657073  25.0526357   2.4199691
  14.5839751  25.8635163   2.9219869  14.9891162  25.3326344   1.5636759
  48.6577368   7.6274323  15.1379609  47.8780365   7.9615539  15.5814254
  48.4656572   7.7301514  14.2058742   4.1780487  16.5253973  44.8595285
   4.7227260  16.1642838  44.1601324   4.7310197  16.4832950  45.6397104
  52.7664280   9.3904060  42.1789026  52.7953053   9.3068403  43.1320095
  53.3326721  10.1378500  41.9867420  43.8956976  17.7899945   1.0371194
  43.1831264  17.9347599   1.6596293  43.8858318  16.8463361   0.8769877
   6.8214869  61.0017586   5.5409181   6.3493085  61.8306732   5.4623461
   6.3378608  60.3964138   4.9788702  20.7825708   8.4061652  61.7617512
  20.5641460   7.6299661  62.2775412  20.8631372   9.1080296  62.4076080
  15.0728846  15.9034896  64.5704603  15.8401978  15.3769433  64.7945404
  14.7074103  16.1658573  65.4153442  25.5595207  36.4743280  48.0513334
  25.8465219  36.5576458  48.9606857  24.6047306  36.5255237  48.0958700
  59.8667669   9.9993426  38.9281893  59.5757484  10.8736885  39.1871452
  60.7792711  10.1188171  38.6649537  40.7638788  22.3198986  19.5418799
  41.0964632  21.7111778  20.2014875  41.5495253  22.7031422  19.1518557
  26.7052937  25.6308174  50.4365587  26.6256356  26.5721607  50.2824068
  26.2613940  25.4865551  51.2722445  61.5715742  75.1444006  61.3634253
  61.7205000  74.6073151  62.1416235  62.1158361  75.9198952  61.4998865
  10.0484896  20.9535551  35.4931855   9.1052663  20.9262991  35.3325033
  10.2512932  20.0992870  35.8744073  42.5070190   3.9164799  27.1822429
  42.6952839   3.1860372  27.7715158  43.3511019   4.3519098  27.0632577
   9.7324085  69.5390224  50.8010721  10.6495714  69.3088055  50.9495449
   9.6057665  70.3489923  51.2951756  22.8183627  49.0114307  18.3996260
  22.6668191  49.2219782  19.3210030  21.9459319  49.0177965  18.0058551
   3.3779529  81.1226654  49.2735767   2.6528722  81.4812279  49.7853661
   4.1234034  81.6831017  49.4891024  86.2224960  38.9748073   2.5032613
  86.4580822  39.8155260   2.1109337  85.4103470  38.7242270   2.0629594
  31.6283798  46.5930653  16.2905145  31.9258356  45.7888556  16.7159545
  30.9315610  46.9210958  16.8589079  32.5217581  23.7437415   8.4779727
  32.3503494  23.3603907   7.6178020  33.4583735  23.6058712   8.6193043
  82.5144958  57.0109653  29.0713000  81.8489075  57.6985216  29.0491867
  83.1949902  57.3169947  28.4717107  10.0829208  45.8470201  34.4912958
  10.9187937  45.4564524  34.2363310   9.7885972  45.3194284  35.2337599
  19.4834197  44.2659712  57.9287434  20.0999784  44.9822664  58.0804396
  20.0121212  43.4726572  58.0145121  25.8230400  17.6273096  25.2015662
  26.1669803  17.5745797  26.0932827  25.8744311  18.5570025  24.9796200
  76.8660355  74.3606138   9.2427367  77.5238609  74.6840715   8.6272097
  76.8041754  75.0452280   9.9088508   5.5843031  77.0018721  26.0631585
   6.0685790  76.7535830  26.8505979   6.2502891  77.0488310  25.3772354
  56.2539816  70.0783682  70.1772928  56.2786055  70.2433443  69.2347431
  56.8032026  70.7652760  70.5551100  53.6915350  62.2109842  67.0542526
  54.0478134  61.3237476  67.0083237  53.0210543  62.2354889  66.3715458
  34.1857743  34.1615987  49.6964788  33.8067317  34.4289541  48.8591766
  34.6218896  33.3307290  49.5075607  72.7013826  73.8883209  28.4769964
  73.4407520  74.2944527  28.0246496  73.0437136  73.6644888  29.3424106
   5.1924664  23.4163547  23.3717918   5.3423607  24.3538046  23.2495308
   5.6740010  23.1988978  24.1699576  39.0085649  23.1299186   7.3326772
  39.0829015  24.0837955   7.3614210  39.2222071  22.9001737   6.4283508
  47.6366806   1.6391850  38.7697959  47.5214338   0.8974015  38.1759024
  47.6329374   2.4067292  38.1978750  14.1933143  47.7512598  42.6661062
  13.7681675  48.4313583  42.1436596  14.0225577  46.9399405  42.1877384
  30.1971126  14.6923018  46.2536478  29.9172974  15.2499211  46.9795942
  30.3479552  13.8359308  46.6537857  37.0033574  58.1887436   5.7838565
  36.5682125  58.9039993   5.3198618  36.4528823  58.0308771   6.5508556
  43.8233471   5.2079117  17.0044672  44.3414211   4.6095797  17.5428283
  44.1642380   5.0886357  16.1180139  83.6400127   5.4983318   5.7506841
  83.0173779   5.5023515   5.0236732  84.4393730   5.8757639   5.3835261
  11.3765526  17.7644253  24.5216680  11.8207073  16.9342005  24.6939635
  10.7826924  17.8768992  25.2639031  32.3641062   1.7404424  25.2608705
  32.7825165   1.0473987  25.7716084  32.4891448   2.5322437  25.7839823
  65.3342152  20.4757333  33.8165283  65.8227968  21.0069942  33.1878138
  65.9074640  20.4219437  34.5812035  12.0521796  65.8742809   3.0726916
  11.3007605  65.8142042   2.4827829  12.4760151  66.6996479   2.8373998
  47.8790045  30.5341077  18.2551467  47.0349884  30.9117079  18.0075884
  48.1668472  31.0597038  19.0015543  33.2593107  33.3166194  38.6934948
  33.2435822  32.4296379  39.0530062  33.6376667  33.8512969  39.3914890
  53.5859108  22.0081210  20.8683133  54.1189051  22.0324636  21.6630197
  52.7420235  21.6602015  21.1564684  17.6938665  31.7082357  21.4155030
  17.4911571  31.2557554  22.2342825  18.5174203  32.1634364  21.5909505
  34.5338011  16.6682911   1.5780377  35.2010226  16.0509717   1.2780972
  35.0256538  17.3459363   2.0418367  85.4149723  34.2222738  15.4955244
  86.0654640  33.8806629  14.8820198  84.6047878  33.7688208  15.2626729
  39.4102025  39.1692710  18.9934266  39.8335528  39.4218206  18.1729245
  39.5025039  38.2171369  19.0274000  48.7849808  80.8633137  26.8373156
  49.5886469  80.4255486  27.1178818  48.1338215  80.6112194  27.4920487
  36.1300588  35.4734612  29.6679544  35.6497550  35.9430838  30.3498626
  35.9449768  34.5497608  29.8375320  80.8394051  68.4569883  38.8358068
  80.6701279  67.7441502  38.2198191  80.8291245  68.0375814  39.6961689
  35.8337903  14.2073500  47.9002666  36.6209745  14.1701436  47.3569584
  35.8832598  15.0583744  48.3356333  53.5908365  12.8138101  23.3314991
  52.6507425  12.9545701  23.4439373  53.6676598  12.3748612  22.4843550
  10.4615271  44.2198277   2.7787349  10.7377625  44.8008108   3.4875262
  10.1052082  43.4511757   3.2242000  12.4997127  13.2582510  15.3908730
  13.4341109  13.1866050  15.5858016  12.1005225  12.5247455  15.8586860
  19.2908907  31.5169573   3.1225446  18.6051941  30.8536935   3.2008472
  20.0287104  31.0531092   2.7266961  16.0393739  50.9100437  69.6998072
  15.9927249  51.8452787  69.8982859  15.4566228  50.7951403  68.9491844
  29.2122579  37.2086072  38.3242989  29.7337961  36.5174031  38.7323046
  28.4371376  36.7577529  37.9894090   4.8891762   8.9881563  56.4308023
   4.3552363   8.4333730  55.8621550   5.7390660   8.5490727  56.4643335
  26.3847423  40.0930071  48.1971741  26.2783837  40.1610994  47.2483444
  26.8906188  39.2904449  48.3244991   2.2683731   9.3463904   1.5687247
   2.1635056   9.9737102   0.8533894   3.0441102   9.6489775   2.0408526
  68.4139585  72.3271370  37.6171994  68.2955837  72.9429388  36.8940043
  69.1918325  72.6437235  38.0764580  45.7142782  62.0464277  38.7711596
  46.3241911  62.4711895  38.1679869  46.2749434  61.6402626  39.4321561
  49.4254637  17.0667362  28.5269475  50.1760006  16.4874923  28.6588621
  49.4436026  17.2732210  27.5924611  73.8255692  74.6555090  43.0211830
  73.8671064  75.5823088  43.2568550  72.9582405  74.3731928  43.3114815
  21.3754201   7.8108209  56.3951254  21.4913630   7.3709905  57.2373486
  20.9868789   8.6567110  56.6181517  63.6892653  77.3434687   0.2125496
  63.0021048  76.8385553  -0.2223090  63.2241917  77.8717375   0.8612921
  27.7562094  30.4731441  25.1638556  28.5419059  30.2691889  25.6711197
  27.8668070  31.3891053  24.9088764  47.1236706  11.1689329  36.5927339
  46.4831495  11.3763463  35.9123349  46.7800808  11.5890443  37.3812032
   0.4755654  68.8936377  60.6870985   1.3694921  68.5827112  60.8301115
   0.2679934  68.6228609  59.7927713  19.3597329  75.4415703  13.5987842
  19.4273448  76.2509823  13.0923200  18.4299755  75.3714514  13.8152707
   7.7329326  69.1418362  67.1689939   8.4806389  69.3160391  66.5973091
   7.7503425  68.1943750  67.3040771  22.2514653  36.2527251  45.9625578
  22.7058887  35.8152938  46.6825485  21.3652253  36.3999271  46.2929249
  22.5148416  26.9960570   7.8678638  22.9464650  27.5166464   7.1904266
  22.8967690  26.1228991   7.7786338  25.6573963  30.2499461  58.7975121
  26.2961507  30.8388352  58.3957243  25.9358120  29.3747091  58.5279274
  50.7941961  12.5311899  52.1565056  51.4094639  13.2644141  52.1640015
  50.0326061  12.8624558  51.6806126  15.1806700  37.8029442  21.8084311
  15.2371347  38.1628466  22.6935959  14.3430316  37.3400283  21.7910790
  20.8436370  11.6916680  27.3376417  20.0468326  12.1081185  27.6661253
  21.5037131  12.3844242  27.3625755  32.0090175  12.5383866  42.6746082
  32.6119709  13.0196571  43.2412291  31.1467314  12.8988302  42.8814220
  15.1482165   7.5805640  33.4666800  16.0202658   7.5934792  33.0722237
  15.2566445   8.0343866  34.3024564  26.5436220  40.6640100  37.2867250
  27.3349524  41.1869240  37.1579242  26.0354018  41.1539078  37.9332066
  33.1000662  37.7346683  29.9183655  32.2060823  37.4501419  29.7284532
  33.4823680  37.9127765  29.0590906  38.5498357  72.3744822  43.4684610
  37.8107810  72.8194523  43.0536985  38.7126684  71.6120529  42.9131079
  27.2629547  28.4615064  43.7562370  27.8103614  28.3900833  44.5382071
  26.9028401  29.3474865  43.7960672  59.1110563  79.1556692  57.2051811
  58.6339331  78.3603334  57.4418831  60.0176239  78.9737463  57.4527121
  38.3671927  56.2569952   2.2113101  38.9153409  55.4758120   2.2856081
  38.5383153  56.7470407   3.0155516  64.1762400  36.1297941  10.2504086
  64.8394871  36.6633844   9.8126709  64.1638899  35.3101039   9.7562563
  11.0888433  26.9335389  22.4438763  10.1896191  26.6656137  22.6331973
  11.6143453  26.1546397  22.6266193  14.8159266  28.8893199  32.8869152
  15.7389796  28.7934661  33.1214714  14.5972908  28.0735016  32.4365020
  45.2288771  74.9840117  25.5839038  44.8205614  74.8797131  24.7244692
  46.0180902  74.4440556  25.5412364  27.7386808  19.3205535  12.2095001
  28.0066633  20.1450419  12.6152527  27.9763770  18.6500549  12.8499413
  78.1793022  40.0661898  56.4168310  78.2477188  39.4577384  55.6810760
  77.2556686  40.0373030  56.6664314  10.1315677  34.7360468  11.1301506
  10.0239956  34.4760394  12.0450580  10.4051518  35.6523538  11.1721385
  34.7135019  34.1099691  21.1943221  34.3858886  33.2285285  21.3731074
  35.2055240  34.3466616  21.9805312  80.2228451  79.4118834  51.0980749
  80.2313614  79.7370386  51.9983149  79.2940426  79.3253803  50.8834362
  31.7718840  48.4261513  14.1229141  32.7260375  48.4381104  14.1982794
  31.4821911  47.8600693  14.8383582  30.2867937  20.8918905  24.2043304
  30.9920669  20.3154135  24.4984269  29.5095158  20.5724525  24.6626234
  26.2999249  13.4171140   7.8716475  26.1442685  12.5909615   8.3293319
  26.9822145  13.8502383   8.3845955  53.5578060   7.4698311  -0.0265924
  54.3110800   7.8251421  -0.4983535  53.8518333   7.4079019   0.8822216
  14.5284271   0.8418401  23.4468412  14.9039960   0.4095284  22.6798439
  13.6687553   0.4348171  23.5542154  26.2440538  34.1974330  53.5894728
  25.3856277  34.3954706  53.9637947  26.0648370  34.0009665  52.6699543
  56.6301155  22.9120088  60.7708025  55.8052921  22.4316716  60.6988764
  56.3914490  23.8239884  60.6047821  22.4944878  33.3340979  60.6249428
  22.2995925  33.5201907  59.7064543  21.6452336  33.1206226  61.0115004
  22.6051545   8.4712607   5.1559806  22.6211190   9.1148579   5.8643305
  22.1309948   7.7244335   5.5215698  35.2153277   1.4946665  63.9297962
  35.5442500   0.8966609  64.6009350  35.2956772   1.0041591  63.1117630
   8.6978722  10.2944207  52.5228834   8.3537805  10.2287936  53.4136820
   8.4578836   9.4640481  52.1116400  20.0427127   9.7604036  50.2162743
  20.5616403   9.0415108  49.8555279  19.6272767   9.3889087  50.9945011
  44.4459057  76.0945797  44.1430378  43.4937572  76.0123587  44.0893602
  44.6505213  75.9143972  45.0605869  41.1979246  46.9850302  32.7630806
  41.4640141  46.0727549  32.8778696  41.1071014  47.3220015  33.6543918
  22.7970481  27.5214791  24.8417401  22.4013042  27.2405410  25.6667805
  22.2217321  27.1630931  24.1658664  22.0548916  78.5577631   9.7684705
  22.3975706  77.6913071   9.9876940  22.6374793  78.8785982   9.0800744
  12.7459586  11.0424566  41.6328669  12.0254755  11.5742147  41.9710541
  13.4250069  11.6770220  41.4038420  24.8281860  37.4094796  16.4223051
  25.7326007  37.1478271  16.2496769  24.4170713  36.6250491  16.7854619
  44.2898464   9.0034240  40.4219007  45.2193165   8.8010663  40.5285120
  44.0604019   9.4972438  41.2091303  38.9887905  63.8596582  28.8399863
  39.6528006  64.3954325  29.2738795  39.3985295  62.9996538  28.7465000
  25.4681540  17.1021438  53.4991360  25.7587743  17.9605711  53.1911182
  25.8399820  17.0244479  54.3777370  50.0477839  76.9057608  36.2837791
  50.5953169  77.1909189  37.0153022  50.1027441  77.6212692  35.6503272
  32.2093725  26.1280608  20.7799029  32.3757124  25.9776497  21.7104626
  31.6668248  26.9163465  20.7579327  73.8182259  80.3082657  26.6866016
  74.4012213  79.9984312  27.3796773  73.1325340  80.7908344  27.1483231
  65.9683847  17.2234321  18.6296451  66.7818356  17.3513305  19.1176748
  65.8716822  16.2729895  18.5701430  39.6778536  17.4592221  60.9727001
  39.6126175  16.5583646  60.6557894  40.5808926  17.7146244  60.7842207
  35.0723457  43.0930376  38.5385060  35.1869345  43.7211752  39.2516255
  34.2115903  42.7053785  38.6967874  21.5339780  26.7267585  22.7777147
  21.4890528  27.2842169  22.0008945  22.2918344  26.1625767  22.6241493
  27.7562881  41.8391228  45.3931713  28.1298161  41.3634396  44.6512604
  26.8534136  41.5260601  45.4483414  30.8078003  19.7014046  35.8042049
  30.6766057  18.8083470  36.1227465  30.2478766  19.7643721  35.0304151
  32.7730989   1.1444835  33.8115716  32.5012946   1.6025549  33.0162549
  33.2228565   1.8114758  34.3302894  28.5462737  11.5639162  64.9258566
  27.6694822  11.2018192  64.7979736  29.1360688  10.8838058  64.6005535
  38.8867402   6.9932610  12.1582615  38.0945778   7.3168194  12.5872386
  38.7988091   7.2761726  11.2480628  33.8481498  43.3470917  16.6501510
  34.2526865  43.1032658  17.4826968  34.3383455  44.1171360  16.3621104
  33.2230425   8.8013673  38.0686355  32.4840975   8.2057399  37.9444528
  33.9607334   8.3585334  37.6491833  54.5598269   5.7156873  35.7023096
  54.9243307   6.2279850  34.9805641  54.0704489   6.3516057  36.2241817
  41.1034012  43.2664394  37.8733063  41.5575933  42.9854584  37.0789576
  41.7910290  43.3167887  38.5372829  32.6174641  26.1195540  23.3121991
  31.7197275  26.4014697  23.4877706  33.1104350  26.3947725  24.0851593
  78.2921791  65.4824686   1.7471340  78.2867289  66.2688494   2.2928517
  77.8132868  65.7353354   0.9578589  13.8779974  36.3250947   6.4770603
  14.5927215  35.7662463   6.1719537  14.2354631  37.2123003   6.4407986
  16.0064328   4.4884023  40.6380510  15.4219615   3.7303934  40.6449699
  16.3727307   4.5164803  41.5219450  39.6729684  32.2439766  17.9991436
  38.9652085  32.7418995  18.4082663  39.3715787  31.3357687  18.0227137
  85.8758736  30.9644055  46.7921495  86.3587284  30.1648307  46.5829611
  86.5520096  31.6359854  46.8818426  26.3559175  45.3454590  52.5325203
  26.1743331  45.3416014  51.5927076  27.3020148  45.4775953  52.5931215
  46.8370295  30.1892662  50.7470322  46.4612579  30.3820086  51.6060305
  47.0122242  31.0487795  50.3639174  77.4512672  77.8091335   3.6651492
  77.6796532  78.4849310   3.0268890  76.7728710  78.2114124   4.2075327
  12.0635104  29.7656608  58.7559271  11.8983746  28.9355040  59.2029238
  11.2989819  30.3040624  58.9605045   7.7284920  65.4727936  11.9055009
   7.0143646  65.4226923  11.2700927   7.6481718  64.6695757  12.4199128
  43.6911249   0.6687724  52.7862310  44.2189264  -0.0992281  52.5675249
  44.2863417   1.2371632  53.2749844  83.7778759  14.3284297  28.2306957
  83.3879852  13.4573793  28.1565881  83.5293102  14.7718906  27.4196529
   7.4047148   0.6938676  32.5961828   8.2493621   0.7204970  32.1466351
   7.5624174   1.1389078  33.4288311  38.5835314  34.9246788   1.7483239
  38.7969398  34.0011215   1.8814766  37.7218866  34.9137282   1.3315718
   3.5246566   9.1676611  52.4383450   3.5504037   9.2259628  53.3934212
   2.7815646   8.5933453  52.2533894  23.2589865  44.2320347  29.4544864
  24.1119075  43.8118410  29.3440485  23.3612704  45.0922680  29.0473437
  83.3419228  17.5442290  33.1645322  83.4840775  17.0722651  32.3439980
  83.2593727  16.8565249  33.8251972  50.2782965  12.5138509  41.0078764
  50.7421303  11.9967330  40.3493357  50.8910656  12.5734591  41.7408037
  53.4849787  36.6561985  10.1826477  53.2663393  37.1352482  10.9819853
  53.1417179  35.7749152  10.3301060  46.6872501  24.0108562   2.1322241
  46.5302134  23.4319401   2.8781646  47.6402426  24.0865827   2.0842730
  33.1644058   1.9216688  17.7425849  32.7762985   2.7234036  18.0930507
  34.0546584   1.9129816  18.0941665  -0.1016966  75.5431604  27.9676867
   0.7884725  75.6977797  28.2837844  -0.1067702  74.6220875  27.7072406
  64.0781975   8.4333807  22.6133132  63.7282276   9.2644346  22.9344082
  65.0265455   8.5192257  22.7107668  35.3774929  38.3653498  35.8196950
  36.0294127  38.2520914  35.1280260  35.4175186  37.5516009  36.3221312
  30.4806948  30.5824542  41.3956738  30.4947829  31.5385008  41.3508844
  29.5507622  30.3578424  41.4274216  16.0546434  24.9334526   9.6707547
  16.1642599  25.5733252  10.3741586  16.2071574  24.0870667  10.0909984
  49.6500540  52.7576303  69.1103554  49.9837446  53.0046272  68.2478714
  49.2418671  53.5554266  69.4467115  26.5621805  75.8156919  35.1624560
  26.4700627  75.4792881  36.0538459  25.7405448  75.5802631  34.7315025
  60.5799723   6.3218683  14.1079688  61.4029694   5.8472437  14.2247510
  60.8230257   7.1047592  13.6137640  71.6677046  64.0802717  22.7127409
  72.0429802  63.3109236  23.1411123  72.4111557  64.6693325  22.5841928
   9.2263234  79.3759584   4.1614360   8.6831802  79.1515970   3.4058636
   8.7173778  79.0835476   4.9175462  21.7930055  62.8890085  13.5414410
  21.2377191  62.1120358  13.4766054  21.1788988  63.6232376  13.5381830
  38.5059214  19.8272324  44.7087002  38.3128929  20.4129529  43.9766455
  38.9711380  20.3770876  45.3391457  12.6142859  78.6608505  41.4591026
  12.9343188  79.5475817  41.6249990  11.9177043  78.5332298  42.1030903
  16.4942062  39.1182542  30.6927800  17.3096251  38.8479352  31.1149764
  16.1247754  39.7746015  31.2835121  52.6349306  26.5263772  50.6446981
  52.5949574  26.0193419  49.8338032  53.5374069  26.4241123  50.9468794
   9.2241013  34.8726463  35.9790659   9.6286434  34.4739223  36.7495179
   9.5943671  34.3923259  35.2385068  30.3879642  43.6014891  15.8366358
  30.7642579  43.4806252  16.7084312  29.6334362  43.0127954  15.8177233
  27.6437092  22.0373821  16.4646816  27.7900767  21.1039734  16.3111997
  26.7793179  22.0802140  16.8736124  32.6458645  66.3232517  34.3775940
  32.7437949  67.1190882  33.8548255  33.3819222  65.7711983  34.1136074
   4.1712984   0.9431399  16.9257438   3.5692564   0.7062119  16.2203074
   4.4706219   1.8237430  16.6995239  66.9921112  71.1414576  12.4668038
  67.4752283  70.4193735  12.8685784  66.6060448  71.6117859  13.2057047
  12.2176695  18.6323988  27.9168153  13.1456828  18.4533513  27.7652740
  11.8113530  17.7669978  27.9639435  53.3656120  72.5490379   9.1991514
  52.8565311  73.2432175   9.6177012  54.2735720  72.7455235   9.4298792
  71.3236237   1.5231447  19.1998708  71.4178514   1.8606362  20.0906301
  70.4476309   1.1377709  19.1811669  12.6188123  76.6265154  55.0828457
  12.3301053  76.5644407  54.1723347  13.4665012  76.1821270  55.0961447
   1.3664609  68.6188459  38.3122373   1.3203955  69.1866922  37.5430441
   1.0882784  69.1766024  39.0387058  64.0941334  54.0115643  19.8363435
  64.8856926  53.4748268  19.8761499  63.9607763  54.1727591  18.9022863
  37.7659392   7.9058141  24.3516493  38.2662296   7.1960062  24.7542834
  36.9746923   7.9741973  24.8859572  19.8945856  10.3690016  57.4420881
  19.6704006  11.2948549  57.3484516  19.3553531  10.0646365  58.1720352
  48.4420872  49.5063972  59.1111803  47.9024792  48.7176609  59.1655445
  47.8782082  50.1536465  58.6876917  47.1389055  37.8125167  19.3166554
  48.0439425  37.8769112  19.6216023  46.6503191  37.5044489  20.0799465
  35.4526806  18.5855329  18.6973548  34.8961473  18.6887538  17.9254436
  34.8467755  18.3488488  19.3995571  11.7361569  63.2332897  60.7573462
  11.9687760  63.3418131  59.8352051  11.5715599  64.1231775  61.0691738
  64.7761059  78.5669184  48.6182308  63.9108801  78.4543753  48.2245970
  65.0346136  79.4567060  48.3780432  17.6116562  25.5112100  34.1528940
  17.5839305  26.2392902  34.7736716  18.4275615  25.0539064  34.3563724
  23.3933187  34.4496274  29.4335818  23.4737301  33.5038614  29.3099308
  24.1244030  34.8189521  28.9382577  35.6291294  40.2586651  39.7142434
  34.7171950  40.4753399  39.5201898  35.6374359  39.3046141  39.7913790
  10.0789475  25.1721668  69.4897985   9.6311325  24.6993709  70.1913357
  11.0100746  25.0474405  69.6733093  45.3869867  30.7867789  14.4386971
  44.9750662  30.4822373  13.6301124  46.1880159  30.2676105  14.5096970
  32.3738456  38.4135985  39.7763395  32.3229361  37.8054404  40.5137539
  31.4617944  38.5703659  39.5317650  43.2046795  39.6922851  40.0472689
  44.0944004  39.5993829  40.3878450  42.6906347  39.9894428  40.7980633
  39.3615556  73.3731747  52.2954702  40.0039005  73.1082296  52.9538250
  38.9834285  74.1815758  52.6415014  61.9939280   2.8788298  13.1578350
  61.5577507   3.5185710  12.5950646  62.2503090   3.3776316  13.9335263
  17.9366112  36.7498684  24.1203332  17.4536109  35.9546566  24.3452358
  18.6617482  36.4436889  23.5756660   6.5279055  32.9183626  37.1304464
   6.6160661  33.8285589  37.4132895   7.3901135  32.5338531  37.2885036
  43.2990074  35.6575847  19.8077035  44.0762615  35.3271008  19.3572712
  43.2912683  35.1927185  20.6444049  40.4014492  43.7490845  22.5335431
  39.8969412  44.5565081  22.6324105  41.3084602  44.0424681  22.4470425
  18.0572188  67.6455784  15.3184319  17.9342866  67.2551870  14.4531500
  17.5626326  68.4643841  15.2842307  58.6036682  55.1246214  12.4489272
  57.9535723  55.0063038  11.7563868  59.4425774  55.1475286  11.9885647
  30.5058026  30.1688457  22.7859330  29.6760726  29.7712064  23.0498719
  30.8625698  30.5373883  23.5940957  46.8286371  16.0869455   3.3812186
  46.8335056  15.3017819   2.8337458  47.7118683  16.4453995   3.2937494
  16.2498772  51.4426613  26.9030809  15.9826112  52.1135187  27.5313711
  17.2064412  51.4500952  26.9371557  62.2118187  14.3885028  54.8158550
  62.2038698  13.9006007  53.9923763  63.0676889  14.1971290  55.1993847
  43.9828587  33.3141017  37.6026845  44.1990566  32.6937771  38.2988787
  43.8546371  34.1474795  38.0557561  17.2903442   2.1274105  39.1397595
  16.6583943   1.6707565  39.6950436  16.8970418   2.1127404  38.2672167
  42.2636271   4.6794760  59.2114544  42.2759008   3.7827170  58.8769341
  41.9570637   5.2062595  58.4733820  48.2767487  54.4992352  35.2222919
  47.6633453  54.9491453  35.8032823  48.2034731  54.9652815  34.3894267
  41.4641762  40.8800173  32.5027871  40.6018782  41.0899305  32.8614163
  41.3030386  40.1525831  31.9018626  17.6206779  24.4747496  15.2218676
  17.8932798  25.3351641  14.9031079  18.3072972  24.2189360  15.8377779
  45.8228683  24.0125990  11.7852485  45.4529905  23.1498551  11.5979004
  46.5223169  23.8415170  12.4159086  25.6241560   7.3983240  25.4205847
  25.5741978   8.1660318  25.9901118  26.2139773   7.6620203  24.7143221
  28.7617850  25.8020782   6.3496310  29.6622872  26.0933185   6.4928222
  28.8045406  24.8483825   6.4194161  24.2589998  55.7063198  36.6765928
  23.4814286  55.7319403  36.1189580  24.9684310  55.4512787  36.0867691
  70.3866482  36.7070198  14.7076523  70.9832573  36.8473220  13.9723957
  70.5123138  37.4730992  15.2676177  69.9773550  27.3409224  23.2279754
  70.6651545  27.0888186  22.6118517  69.2584133  27.6440430  22.6734686
  42.0461082  44.3469763  32.6897645  42.4155045  44.0865088  33.5335255
  42.6558876  43.9936686  32.0420218  45.4889250  34.2147732  17.7797353
  45.5287695  33.3102226  17.4692023  44.9721289  34.6729755  17.1170127
  45.2637720  10.8702648  65.6621742  44.3128252  10.7953382  65.5827141
  45.4146051  11.7915726  65.8735323  61.4321327  11.8537438  32.7873874
  61.6692877  11.2239754  32.1066666  61.7987967  12.6841378  32.4836802
  26.2040329   7.5750041  58.2935095  25.8647394   8.1357759  57.5959063
  25.4245472   7.1780288  58.6821556  43.4956741  13.6565912  18.3937919
  43.0823421  13.1305170  17.7092218  44.1890955  13.0955708  18.7411451
  10.3031588  20.3117466  18.4880590  10.1170099  19.3739045  18.5331619
  10.4690421  20.5669212  19.3955827  30.5525112  51.4968681  37.4076676
  29.9787116  51.4064407  38.1684637  31.4376903  51.4339256  37.7664542
   4.1258377  47.9958630  29.9102449   4.6253097  47.1913385  30.0498819
   3.6896342  48.1552887  30.7472301  42.0371342  35.5599713  29.6208715
  41.5949297  36.1556244  30.2257562  41.6187382  35.7229280  28.7755179
  43.7699747  21.7747808  42.9985428  44.0849781  22.5844383  42.5967169
  43.8734627  21.1123276  42.3154068  76.0009050  70.8710527  30.4697990
  75.5296803  70.2371407  29.9291205  76.5523386  71.3502932  29.8513484
  42.5129700  37.4618912  41.7713022  41.5650463  37.3297286  41.7569399
  42.6278591  38.3931351  41.5820551  34.9991059  12.9084754  67.8195906
  34.7434211  12.4599457  68.6256170  35.8744431  12.5729430  67.6261187
   1.4089833  50.0735521  34.5996499   2.3330078  49.8322105  34.6641994
   1.3660638  50.9570312  34.9655104  16.6473627  72.7085209   8.2740706
  16.6729999  73.2759523   7.5036168  17.4537253  72.9117203   8.7481201
  34.9955082  17.1521580  47.6213741  35.2318192  17.9773355  48.0450153
  34.0471959  17.0878184  47.7345085  43.6992502  13.9878178  53.3299303
  44.0911818  14.8486257  53.1828403  44.2632389  13.3824539  52.8485918
  46.7078972  59.5400715  51.1188173  47.0639467  59.1538334  50.3186417
  45.7589483  59.5122957  50.9964895  49.0964317  47.2367716  15.2309430
  49.3981218  47.7687931  14.4946206  49.6540451  46.4590788  15.2088547
  30.3274345  38.3280158  25.0189877  30.4213333  38.0718160  25.9364700
  29.7820830  39.1142559  25.0444698  36.2134337  51.0829735  31.9562125
  36.7895842  50.4592514  32.3980856  36.1107492  50.7296658  31.0725498
  52.0499134  10.9935796  39.7470117  51.7113352  10.3132212  39.1650248
  53.0008221  10.9381688  39.6525145  78.0309534  46.6753864   7.6658762
  77.6441193  47.4997807   7.9607671  77.6022673  46.0055733   8.1986195
  40.8886719  40.2119398  28.4467101  40.5465651  41.0026550  28.8637972
  40.7247019  39.5155978  29.0826750  35.6317306  52.3037767  48.8784790
  35.2478909  52.6285172  49.6930027  36.5765619  52.3782921  49.0125513
  51.5420485   8.9244264  23.2944942  51.0765409   8.9950371  22.4610949
  51.4905834   9.8022312  23.6727047  33.2576847  57.0267534   8.4635901
  33.5943604  56.2485838   8.0193698  32.5362301  57.3253202   7.9098827
  33.9308214  63.4841347  22.4413061  34.0814996  63.0237389  21.6157389
  34.2847729  62.8982067  23.1103659  24.2556214  39.0875340  10.5468214
  24.5420074  39.7900867  11.1304593  23.4574223  39.4245648  10.1399779
  33.3861804  40.8364677   3.9663959  33.8650203  40.8795977   3.1386980
  33.1739926  39.9091125   4.0723062  71.6154099  21.5747333  27.6887512
  72.0861387  21.1004090  28.3740687  71.3148785  22.3769140  28.1158566
  44.6685123  41.9542074  18.8568032  44.1504335  42.2780704  19.5936430
  44.1364813  42.1499681  18.0855381  17.2736144  19.1768074  32.6022911
  17.3586905  19.5067120  33.4968042  16.5973592  19.7271848  32.2073269
  67.6931858  33.0292940  17.2923994  67.4701118  32.2149515  17.7433050
  67.8876019  33.6475849  17.9967785  32.9434299  49.2797804  29.1545963
  33.8283515  49.6437931  29.1292191  33.0391550  48.3930302  28.8071227
  50.8177042  32.8547621   2.2688481  51.0191107  33.1295180   3.1633753
  51.0898733  33.5934854   1.7243786  34.4335270  48.4919834  14.5421338
  35.0355983  48.3258724  13.8167739  34.7107911  49.3375969  14.8946869
  27.2278571  14.4351733  46.0438108  28.0762506  14.1022646  45.7511759
  27.3825788  15.3631938  46.2200737  60.3513479  24.3880701  17.0472503
  59.7580194  25.1356745  17.1199334  60.5346584  24.1388273  17.9530680
  32.6642561  38.1152129  20.5191255  31.7086172  38.1512427  20.4780912
  32.8855658  37.2448301  20.1879334  34.9835253  59.4526958  37.4296713
  35.8559608  59.6895599  37.7442861  34.5822811  58.9875984  38.1637812
  43.7344980  40.8056927  27.6021409  42.8056860  40.6956148  27.8056812
  44.1466808  40.0035238  27.9228616  29.3424630  24.1600585  20.5993986
  28.7283111  24.3983150  21.2938643  30.1878595  24.0862608  21.0422230
  33.1749368  24.5479655  39.1472936  33.1338954  23.6744809  38.7579679
  33.3170080  25.1348066  38.4045529  61.8083286  49.2951012  20.8975792
  62.1967459  49.7440863  20.1467276  60.9701347  49.7369051  21.0334945
  37.4379563  34.8170733  47.7778053  37.2664809  35.6376743  48.2397985
  36.5710473  34.4970441  47.5282383  36.7937684  54.3927717   7.0345503
  35.9657884  54.5247650   6.5727532  36.7982125  55.0656223   7.7153492
  27.4869394  19.7067392  24.1523409  26.8557096  20.3972888  24.3546343
  27.5346375  19.6983898  23.1963658  44.7174120  34.0921092  29.2061591
  45.0245762  34.6699786  28.5076237  44.2105865  34.6629071  29.7836947
  15.9214532  18.1388235  68.9472961  15.8202314  18.3421063  69.8771715
  15.8971298  18.9908838  68.5118294  47.0130444  30.2428794  41.0758162
  47.5421238  30.6148887  41.7814445  47.6328897  29.7313929  40.5558109
   2.4706544  58.9926529   6.0680622   2.1815287  59.9049139   6.0885108
   1.8994020  58.5747385   5.4236639  41.9698572  33.1074834  35.7554245
  42.5927019  32.9327703  36.4609504  41.3845444  33.7753701  36.1125922
  41.3245916  28.2233953   5.4100883  42.2118521  28.0973148   5.0737739
  40.7682657  28.2038641   4.6314037  29.8668385  30.8956289  56.5926027
  30.5403972  31.0180569  57.2616053  30.0790453  30.0533557  56.1903954
  17.8363442  55.1145029  61.0499144  17.2068167  55.8257389  61.1685371
  17.6952386  54.5415592  61.8036127   2.7735412  41.9311810  20.5344915
   3.0604640  41.1484385  21.0048389   2.4323454  41.5998459  19.7038078
  29.6020555  40.0884056  30.4558182  29.6784759  40.4129219  31.3530827
  30.0893807  39.2645478  30.4567647  38.3917570  51.8427706  27.2454929
  37.8913808  52.5261402  26.7995501  38.5044003  51.1589241  26.5852690
  39.4571495  28.0519605   3.3217648  39.3209004  28.6197972   2.5633252
  38.9397383  28.4551597   4.0188643  20.0143123  80.3421116  42.7025557
  19.3649578  79.8256922  42.2251892  20.1691270  81.1055660  42.1463108
  48.2028198  35.6098461   5.2521950  47.2492218  35.5320644   5.2811080
  48.3975220  35.8317900   4.3416667  49.4386864  58.0714369  58.9696455
  49.3823481  57.1741343  59.2981434  49.3465662  58.6183310  59.7498083
  17.4144793   5.6683522  45.7256222  17.2697008   4.8370177  45.2737904
  16.5613127   5.8898830  46.0988045   9.0338564  51.7671013  16.4788687
   8.7429070  50.9505320  16.8848193   9.9742168  51.8001413  16.6545463
   9.5725602  54.0674019  10.6328082   9.0042514  53.8545322  11.3730395
   9.9672765  54.9072170  10.8676434  50.8246756  28.9932132  33.7726593
  50.5278444  29.5797157  34.4684577  51.6015625  28.5666132  34.1341805
  23.4574652  46.6216564  27.7072501  24.0941954  46.4408588  27.0157886
  22.8303981  47.2222281  27.3043442  76.5809011  52.0290375  38.0580878
  75.8444929  52.6398420  38.0288625  77.0469856  52.2541475  38.8632727
  40.2119541  52.9099512   8.0118519  40.6375360  52.3894119   7.3305643
  39.2973566  52.6282501   7.9922706  38.0977702  51.9666815  37.5625110
  38.1680846  51.3051510  38.2507443  37.2577667  51.7853403  37.1409154
  29.9413753  28.0294418  48.6080074  30.7524514  28.3138776  49.0292931
  29.8514414  27.1098137  48.8578558  15.3833389  47.6384068  50.9318972
  15.3658628  47.9591370  51.8335962  14.5027244  47.2940159  50.7830715
  60.1487112  51.3328552  12.1199238  61.0080099  51.2018967  12.5207734
  60.3416300  51.6602182  11.2413752   0.7592821  30.6991982  31.6910481
   0.2275287  29.9683666  32.0062566   1.1666571  31.0567617  32.4799871
   5.6977290  67.3926258  25.1943040   5.4632652  68.3091021  25.0482512
   6.1940187  67.1451044  24.4141364  25.5809903  16.3250184  39.3636107
  26.4273834  16.7384279  39.1934919  25.7909846  15.4039407  39.5177221
  40.9984589  34.1807914  44.2756748  41.0832548  33.8288975  45.1617956
  41.8483353  34.5824671  44.0951347  46.3443470  76.4501381  49.9046087
  46.3282681  77.0607519  50.6415796  45.4218864  76.2752151  49.7183323
  60.7334900  65.0539064  63.7113714  61.0539961  65.7995844  63.2039547
  59.9004078  65.3526497  64.0760040  24.8499680   8.1941682  46.7554998
  25.6353641   8.6240262  47.0940351  25.0474834   8.0255127  45.8342075
  51.8382502  41.3569069   7.3488843  52.1120310  41.9714069   6.6679561
  50.9056520  41.5346146   7.4709773  22.0892525  22.2391510  52.8587008
  22.5602365  21.4476132  52.5981712  21.2155962  21.9300699  53.0983400
   9.0460521   7.0456338  33.0172944   9.4290751   6.9162220  32.1496654
   9.4800311   6.3957465  33.5700512  45.6571293  40.8033514  25.2163196
  45.8420467  40.2922344  26.0042262  46.4119530  41.3849163  25.1254535
  68.9763689  58.8996649  35.1816535  69.2861032  59.5229578  34.5245337
  69.7743607  58.5755396  35.5992389  23.4281206  25.2283335  46.7123842
  23.3170152  25.7960796  47.4749804  23.9944315  24.5209765  47.0208788
  37.9394436  63.3356428  33.0902386  37.0600796  62.9582787  33.1135821
  37.9101300  64.0508032  33.7257838  58.6222839  70.4848480   2.8505105
  58.2864666  70.5409288   1.9559079  59.2806768  69.7908974   2.8161320
  52.1937227  45.3402853   1.8993399  51.3176394  45.3001213   2.2828764
  52.7362537  45.7348013   2.5821641   8.6571246   3.3737224  12.3022139
   9.3456930   3.2550794  12.9564536   9.0394610   3.0429649  11.4894104
  72.5796747  47.6356316  14.8557317  72.8324223  48.5530758  14.9589026
  71.6383886  47.6255417  15.0292730  70.0518751  51.7788696  22.5786710
  69.7207022  50.9298897  22.2857618  70.8706617  51.8957567  22.0968437
  45.9830523  59.6248198  30.2944207  45.0909472  59.8425388  30.5645609
  46.5235806  59.8454571  31.0529590  69.4160795  24.6515846  22.1009970
  69.4506216  24.2644501  21.2262607  70.3288174  24.8477602  22.3123097
  44.9833393  53.7657499  33.8443565  45.0391436  54.0379333  34.7603464
  44.2974854  53.0981159  33.8342381  48.4067535  63.2745457  16.4536250
  48.8422823  62.5572205  16.9140530  48.8243914  64.0659142  16.7935503
  45.2161741  65.7021713  45.3499317  44.5140457  65.0529623  45.3077555
  44.8361731  66.4347792  45.8348227  52.4340296  58.6724710  38.9260411
  53.3158684  58.4991932  38.5965538  51.9183016  57.9194450  38.6375809
  31.6111827  52.1335793  43.4043741  32.0910907  51.4690971  42.9100180
  32.0934081  52.2146893  44.2272425  42.8499174  65.0774860  49.6985579
  42.3263025  64.5155048  49.1273880  43.7089014  64.6560955  49.7270918
  74.6320629  65.6789494   2.2644097  74.3732357  66.3220167   1.6043320
  74.5579481  66.1465359   3.0963352  45.6417084  42.6973009  22.4965167
  45.6155872  42.8127289  23.4463739  44.8073483  42.2796059  22.2829700
  74.1795397   0.9308370  21.2339878  74.3658590   0.7161727  22.1480107
  74.6248817   1.7655307  21.0884142  72.1041393  31.2843347  20.8288407
  72.4452543  30.6991935  20.1524663  71.7847395  32.0471311  20.3468084
  40.0340462  61.5823269  13.9262450  40.1171923  62.1542549  14.6892726
  39.0914583  61.4456511  13.8309455  54.2197275  47.3777914   7.0846039
  53.8628101  47.6482916   7.9305786  55.1689053  47.4064922   7.2048843
  62.6253319  77.5372124  11.5393937  62.8983736  77.9287624  12.3690748
  62.1344090  76.7557430  11.7934227  52.0541573  64.7043610   7.1397078
  52.4581528  65.4115152   7.6426542  52.3737860  64.8327398   6.2466282
  75.8032751  71.8857574  21.6477990  75.0098944  72.4046946  21.7800236
  76.4342403  72.2505140  22.2683406  69.3778753  67.3587751  47.1256590
  68.8433027  67.3328495  47.9192543  69.6831036  68.2644176  47.0719671
  36.3506150  33.1290936  26.2897444  36.8242288  32.2972798  26.2924147
  37.0351124  33.7946653  26.3583851  36.9990063  56.4801121  37.4640298
  36.6476250  56.8457508  36.6521978  36.2983322  55.9195089  37.7972102
  68.7787199  39.3208504  15.8806276  69.2375135  40.1002884  15.5672348
  67.8659344  39.4632626  15.6300890  56.7616987  54.0520668  18.6259890
  56.7072105  53.3354282  19.2582059  56.2815714  53.7339926  17.8614366
  63.2769346  60.9387684  33.9334083  63.1076670  60.3265476  34.6494818
  64.1517782  61.2826443  34.1140413  44.7838354  30.6807351  62.9654026
  43.8630962  30.4553485  63.0983210  45.0763512  30.0924349  62.2692919
  78.4754992  32.0127296  60.1143503  78.1539488  32.4373031  60.9096956
  78.7963486  31.1609268  60.4105282  64.1054869   6.0524952  41.6349983
  63.9345026   5.1364160  41.4163780  64.8925447   6.2745696  41.1375523
  78.8290501   6.6229051  50.7985973  78.8102055   5.9240937  50.1447344
  78.1223536   7.2136766  50.5382061  42.5916290  64.6939850  14.3288434
  43.3647013  65.2561712  14.3793058  42.9161501  63.8731718  13.9584637
  22.5108576  22.1585774  24.7098780  23.2529783  22.5255060  24.2294049
  22.8996277  21.7799854  25.4983926  77.3065329  51.8776894   8.2219803
  76.4889240  52.3034906   7.9642302  77.7343512  52.5101566   8.7992024
   0.4115382  78.3632994  23.3093977   0.2541413  77.8753614  24.1177106
   1.0952991  77.8671169  22.8593898  61.5208626  48.4196901   7.6424843
  61.7397451  48.8242626   8.4819144  62.1998549  48.7293720   7.0430672
  52.7946091  55.7260036  32.3455119  52.6022816  55.2432060  31.5416789
  53.7145901  55.9762239  32.2603178  80.5732918  28.0559850  27.0037842
  80.9540558  27.6824427  26.2089777  81.2002087  28.7253165  27.2779965
  19.8058963  54.7150946  22.9104733  20.6364322  55.1163483  22.6546645
  19.7211719  54.9136257  23.8430190  23.4515166  49.8927355   8.3912051
  23.8411903  49.1949368   8.9179498  24.1324282  50.1248884   7.7597827
  46.0436773  75.7076120  16.0645604  46.7064667  76.3677645  16.2673903
  46.3485861  75.3038549  15.2520061  52.0405197  40.8613777   3.8743976
  51.1991596  41.0475969   3.4576616  52.1871281  41.6039371   4.4603497
  65.0587940  63.7547255  25.5101919  64.6203327  64.2052460  24.7883773
  65.7120466  64.3810749  25.8219337  53.7747145  55.7777357  20.7132506
  54.5845795  55.3745985  21.0260320  54.0455580  56.3103008  19.9654186
  43.6922216  48.0267429  15.9591794  43.6639071  48.7770367  15.3654730
  44.0029526  48.3893490  16.7887545  69.2091656  52.8491354  44.1786480
  70.1314449  53.0854034  44.0796185  68.9546251  53.2255077  45.0211334
   6.7578238  69.7870302  42.7122641   6.1437428  69.1957092  42.2769785
   7.5936127  69.3208551  42.6931524  45.1512003  67.2759581  22.0579314
  45.2511311  67.6863384  21.1989570  44.6991158  66.4515734  21.8783832
   0.8401063  11.9876420  67.3051977   1.5458992  11.5222907  66.8562698
   0.0913747  11.9158280  66.7131853  45.9409714  61.7739582  43.0654430
  45.0451136  62.1110058  43.0737400  46.3727570  62.2235441  43.7918425
  61.0387135  17.7949440  35.6205058  61.7748690  17.4538994  35.1125717
  61.4181566  18.4949327  36.1517978   2.6065940   8.4849173  41.6224003
   1.9220272   8.8998365  42.1472263   3.2120898   9.1961128  41.4130974
  13.7211859  55.8528852   5.5713230  13.7812483  56.1296606   4.6569812
  12.8703511  55.4189777   5.6348258  77.6918268  58.2822514  32.4456143
  78.0454445  57.7297640  31.7485118  78.4645081  58.6393881  32.8833961
  51.6622734  60.4970598  12.5811446  52.1465635  60.9475613  11.8892312
  52.1594143  60.6786728  13.3787012  62.8640223  41.2499857   1.5844394
  62.1076488  40.7594013   1.9060804  63.4203005  41.3647842   2.3548995
  40.2704000  30.2426887   1.3914324  40.9327984  30.6209946   1.9696589
  40.6360960  30.3401804   0.5122311  49.6386576  55.6522703  40.6486559
  50.2915955  55.0063753  40.9183311  49.2281723  55.2686930  39.8736691
  17.5330806  55.3302431  52.5368023  18.4244764  55.0233555  52.7025270
  17.4448323  56.1139202  53.0792999  51.2444401  72.1619320   7.6325107
  52.0401049  72.6647997   7.8065026  51.0400486  71.7405796   8.4673280
  14.1817248  30.7847571  39.1464210  14.0964091  31.4873695  39.7908497
  13.5218585  30.9867358  38.4830880  57.5492430  52.9860735  44.3380213
  57.1213913  53.7896013  44.0421867  57.7488899  52.5102472  43.5318232
  26.4498043  59.1160250   8.4430295  26.6770148  58.6558580   9.2510211
  26.9685483  59.9199772   8.4712827  26.0411835  50.7556200   9.8458260
  26.8128085  50.3037596  10.1873708  25.3086615  50.3829956  10.3365374
  30.7104945  55.3072166  37.8584981  30.3224802  54.6510172  38.4373522
  31.4167452  54.8427725  37.4093461  80.0043106  31.3151264  45.4400206
  79.5417500  31.0254192  46.2263680  79.3258572  31.7170978  44.8974800
  36.7804241  63.4023952  47.2422791  37.5050759  64.0257120  47.2931337
  36.3181686  63.6376333  46.4377832  30.7143998   8.5458291  19.4168639
  30.6724429   9.0181839  20.2483392  29.7990465   8.4038723  19.1755927
  50.2000332  51.1836910  56.1552191  50.4285002  52.0828629  56.3908434
  49.5220327  51.2763739  55.4859257  45.7818270  14.1754150  69.0760326
  45.7143641  14.9467993  69.6387434  45.2000523  14.3644059  68.3397865
  74.6485853  57.3021317  39.8207068  75.4838896  56.8549967  39.9569631
  74.7890806  57.8398371  39.0413713  47.6332521  73.7452364  24.5435548
  48.5393000  73.7227392  24.8514438  47.3887777  72.8244162  24.4510818
  68.8524675  30.4581237  16.6311896  68.0181026  30.1317787  16.2941980
  68.7858868  31.4099312  16.5546155  23.0127788  13.7893891   7.6957715
  22.2256947  13.8114178   7.1514875  23.7282968  13.6454570   7.0764577
  53.1249237  67.6149511  26.4587235  53.4323645  68.2543373  27.1012974
  53.1380272  66.7799520  26.9265223  46.3579321  77.1516657  33.3713198
  46.1654758  76.5681028  32.6373935  46.5377092  77.9986000  32.9631329
  84.6999359  56.9800901  58.9704895  85.3255367  56.3630056  58.5909367
  83.8980007  56.4696455  59.0826178  25.2796531  47.5526953  23.5709476
  25.7963896  47.2539330  22.8226471  25.0655580  48.4628773  23.3660889
  11.0201705  69.6026421  48.3874226  10.3534889  69.5332336  49.0707588
  11.2808931  68.6980343  48.2144022  14.1379786   4.1927028  33.5202813
  13.8270128   5.0916535  33.6271429  13.6272573   3.8480836  32.7877283
  12.0873260  13.6613059  28.2040501  11.8652821  12.8448367  28.6516047
  12.1955526  13.4098816  27.2868252  84.1964436  14.2740190  18.2440197
  83.2660580  14.4191706  18.0721378  84.5981407  14.2412829  17.3758066
  33.6952066  72.4607277  31.3182378  32.7644944  72.2444010  31.2615824
  33.7336206  73.1946230  31.9315529  18.6752319   7.9752654  23.1096363
  19.5651817   8.1731498  23.4012938  18.6575401   8.2482326  22.1923542
  75.6627035  66.8932772  31.0496092  75.0293589  66.2110519  31.2724805
  76.5158319  66.4739656  31.1617684  45.7313395  65.2624798  17.2286129
  45.6144857  64.9422264  16.3341784  46.0277653  66.1664248  17.1225464
  48.1096697  75.0318670  35.2317786  48.7115812  75.4901409  35.8182263
  47.6632977  75.7303667  34.7531533  20.2994800  28.3766270   0.9901857
  21.1548448  28.0188084   1.2279842  19.7728682  27.6094198   0.7658983
  81.9934654  38.3344579  31.5524673  81.8368149  38.4864426  30.6204844
  82.4794197  39.1063809  31.8426633  79.6423721  44.9314880  23.2410002
  79.9528122  45.5000734  23.9456773  79.7761965  44.0437412  23.5730052
  35.6860924  58.8037062  24.5004892  36.1576009  59.0690994  25.2900958
  36.2736416  58.1844521  24.0674257  55.5130434   8.4292275  24.9945045
  55.8807564   9.3115830  24.9448013  54.8745871   8.3953404  24.2821455
  46.4394331  19.2939496  17.2767854  45.5974579  19.7161162  17.1062398
  46.3043594  18.3801448  17.0258927  58.2692003  69.7216558  18.1738055
  57.6100445  70.2799273  18.5862124  57.8763103  68.8488102  18.1714880
   5.9209603  57.8450632  23.4839964   5.3363007  57.9385662  24.2361021
   5.7083803  58.5896873  22.9213452  36.8801427  45.9680748  32.6526833
  36.8046236  46.2374449  33.5680890  36.0055780  45.6545162  32.4223542
   6.9082081   7.0470363  56.7550755   6.5746778   6.5282154  57.4870682
   7.8499860   7.1087128  56.9147062  71.6814232  58.6549473  42.4124861
  71.7061758  57.6983023  42.4336863  70.7496357  58.8695049  42.3680162
  45.1284981   9.8865849   6.1943114  44.3284178   9.5078474   6.5585411
  44.8362780  10.3603399   5.4155970  42.9431725  62.2347450  51.5324450
  42.7518845  62.8990698  52.1944904  43.8351154  62.4316597  51.2462759
  62.3435163  60.9743309  39.5020890  63.0461359  60.7276201  40.1034975
  62.7124643  61.6889191  38.9829826   6.2261683  69.8533726  45.8674383
   5.6908077  69.5365572  45.1399422   5.6329012  69.8546219  46.6186142
  25.9992409   3.1178299  29.6356893  25.4845214   2.6415768  28.9841676
  26.9047904   2.8635681  29.4580293  74.2937136  37.3711920  66.7125607
  74.0524197  38.2625747  66.4606810  75.2081966  37.4391103  66.9870520
  67.6950312  61.0602331  17.0801628  68.1402779  61.1514521  17.9225802
  68.2775497  61.4896202  16.4536405  10.4773247  71.2103081  32.9904199
  10.7130206  70.9219933  33.8722110  11.0747874  70.7330322  32.4146771
  60.1623821  79.8561907  11.4191413  59.3969011  80.0860023  11.9458771
  59.8886395  79.0850496  10.9225178  20.0477576  63.6369705  48.6894321
  20.6629372  63.2781935  48.0498505  20.5693769  64.2527485  49.2041779
  15.9645426  10.0503099  29.1898918  16.4133549   9.2319214  29.4021201
  16.4956045  10.4418528  28.4964228  42.6676178  62.8936863   1.0132454
  41.7459345  62.7506828   1.2283739  42.7944756  63.8366556   1.1178653
  57.2905016  76.3303852  14.8861599  57.8146791  77.0583963  14.5522928
  57.0016289  76.6202927  15.7514572  69.3531513  71.0180140  27.9061222
  68.4260225  71.2389183  27.8174567  69.8154211  71.7815256  27.5603032
  53.7370825  59.6872044  31.6557026  54.6819592  59.7415113  31.5125489
  53.4589815  60.5963850  31.7665291  24.8116112  66.2877941  68.1452799
  25.3212428  65.5890417  68.5554695  23.9557362  66.2418222  68.5714197
  64.7798967   5.7767338  65.1428938  65.2222443   6.5830588  65.4082251
  64.2001629   5.5692887  65.8757734  35.4091334  71.5869570  35.1902962
  35.2143812  70.8545113  35.7749581  36.0567546  72.1072960  35.6657577
  67.1132183  54.3202734  18.5296249  67.1470165  54.3815804  19.4842613
  67.4683857  53.4535217  18.3325601  36.5391588  77.5557709  52.9897451
  36.9942784  77.3357296  52.1769238  37.1281362  78.1634092  53.4370899
  24.3612742   2.2872253  27.2566628  23.4897637   2.1617195  26.8812299
  24.5550609   3.2127520  27.1080732  40.7740402  63.7896490  32.1966457
  40.9493446  62.8845882  31.9390345  39.9462342  63.7463808  32.6752877
   1.8962097  41.5072680  46.3971663   2.5198054  40.8074856  46.2030840
   1.8177553  41.9927359  45.5759525  43.3548707  81.6704224  68.8001537
  44.1884202  82.0814720  68.5711002  43.4416789  80.7670529  68.4958220
  41.9547844  70.0980377  39.4873357  41.7494535  69.6698713  38.6562228
  42.6968050  69.6031618  39.8348069  60.2406883  62.6580191  17.5787508
  59.9434376  62.7594805  18.4829521  61.1145258  62.2749329  17.6554573
  30.4405189  51.2314510  40.4846954  29.6470118  51.7395449  40.6532860
  31.1573577  51.8312168  40.6912470  79.0312099  73.4749460  37.7503467
  78.0876255  73.3164549  37.7226853  79.4122171  72.6189470  37.9461288
  53.5844040  57.4755096  10.9192538  52.8684759  57.7485132  11.4929676
  53.2904530  57.7130175  10.0398135  14.0934360  14.0624774  37.8466678
  14.9839103  14.3653786  38.0242562  14.2058682  13.3309412  37.2396708
  51.0396719  70.4759693  45.6656790  51.6439438  70.0449371  45.0612831
  51.5703821  71.1445236  46.0988188  43.6128378  70.0150537  51.2016869
  43.4010458  70.1769781  52.1210098  44.1423368  70.7688332  50.9415293
   7.7111799  68.8547087  22.8482080   7.3162609  67.9904938  22.7324462
   6.9717395  69.4618320  22.8188038  56.6229820  80.1742268  20.9034085
  57.1245909  79.5717144  21.4525843  57.2424793  80.4575920  20.2309799
  65.0742006  50.4579735  51.5071678  64.7776794  50.1868486  50.6383801
  65.8245945  51.0274172  51.3372374  64.3513918  81.2530231  28.8226604
  64.5502758  80.4505539  29.3050742  63.4374762  81.1522198  28.5565186
  48.4607697  79.3329477  18.8402271  47.9700041  78.6476278  19.2937911
  48.1709957  80.1472282  19.2515767  73.9935112  76.8444490  61.0320950
  73.9818382  77.7979040  61.1159086  74.1258812  76.6878080  60.0971222
  13.2350099  61.0327148  14.0495121  14.1636384  60.8893108  14.2320383
  12.8032160  60.2397394  14.3672752  58.5012960  58.9332771  17.2029650
  58.1132412  58.0951405  17.4543011  58.0395222  59.5804644  17.7360237
  72.2646284  79.4263029  30.0492620  72.1526194  80.3264523  30.3548908
  72.9860926  79.0825176  30.5760813  67.2676039  79.2892742  28.7935686
  68.0150890  79.1000986  29.3607640  66.7433643  78.4886408  28.8132095
  62.1945333  71.9753838  31.8345428  61.5565300  72.5263786  32.2879553
  63.0353880  72.4059343  31.9888806  55.2936411  56.4294004  30.2033734
  56.1813068  56.4582729  29.8463798  55.4179716  56.3133907  31.1453462
  33.8046551  70.5208015  25.2634239  33.9662457  71.1863089  24.5946765
  33.4984422  69.7579098  24.7730565  40.8487701  67.8598499  41.8319082
  40.7150412  66.9987869  42.2280359  41.7462301  68.0950689  42.0674372
  80.7697105  21.9524598  61.7941046  81.6595650  22.2129226  61.5563011
  80.7309628  22.0711040  62.7431297  64.7080898  63.7877083  22.2172737
  64.8300028  62.9647446  22.6906633  64.0177298  63.5984802  21.5818000
  62.8509140  78.8349295  35.5479240  62.7626801  77.9097033  35.7768559
  63.7681246  79.0401030  35.7292080  65.4579544  52.9517651  43.1343699
  65.7078886  53.5416222  42.4231529  66.1571503  53.0466986  43.7811661
  69.9848366  53.0934000  59.3330383  69.9336624  53.9998913  59.0299177
  69.3040228  53.0259132  60.0024986  71.9671869  61.0424423  30.1580548
  71.1274385  61.1311769  29.7072935  72.5212145  60.5649853  29.5405459
   6.0628313   1.2521328  45.8050585   6.3165718   1.7890310  45.0543308
   5.6111848   1.8588479  46.3916969  58.1371498  75.9352303  45.8031511
  57.9546881  75.9936953  44.8653221  57.9370642  76.8082047  46.1409616
   9.7226512  49.3336296  12.7682769   9.0445936  49.5351362  12.1234012
   9.8801696  50.1639891  13.2176316  64.1906643  75.4030848  68.0538559
  63.6505699  76.1663103  68.2588577  64.6784306  75.6582022  67.2707701
  36.1340070  15.9062612  68.3105230  36.4805555  15.1872253  68.8388443
  35.1990938  15.7166231  68.2317352   9.0709996  39.6243000  65.5485487
   9.2882764  40.4592466  65.9631395   9.5490688  38.9714241  66.0598564
  57.1675587  68.6532784  22.3958015  56.8386936  69.0391827  23.2076859
  56.5730429  68.9766598  21.7188931   2.8094688  46.8711090  68.8419962
   3.4435534  47.1920872  68.2007980   2.0338932  47.4150896  68.7048912
  65.4963493  77.5764608  65.8161688  66.1951542  77.4504900  66.4580679
  65.9077978  78.0724716  65.1084185  25.9718895  61.4886379  25.6708598
  25.8134055  60.6330061  25.2721024  26.7604899  61.8131399  25.2360702
  58.1455088  59.7799683  21.7835116  58.0067348  58.9467001  21.3333607
  58.5953999  59.5421982  22.5942492  70.0037909  63.7418795  19.4560599
  69.9455214  64.2791653  18.6660194  70.8770180  63.3518267  19.4165814
  85.2760696  49.3562794  19.7783506  85.6140614  49.0953922  18.9216518
  84.4397831  49.7807121  19.5867693  43.5094357  76.3175011  36.9462895
  43.7800932  75.7023525  37.6278830  43.1490421  75.7639933  36.2534881
  34.4859099  75.6524038  21.5040803  34.0045643  76.4784575  21.5506721
  34.3360519  75.3378296  20.6125546  56.5942001   1.2245828  54.6906900
  56.9878197   2.0677361  54.9151659  56.7577076   0.6727239  55.4555130
  67.5326777  49.4241333  36.2577581  67.2453737  50.3123569  36.4692950
  66.9266748  49.1321898  35.5767560  28.9029312  45.9317970  16.1785364
  28.7235308  46.2333107  15.2879548  29.6248984  45.3110266  16.0803616
  57.7128458  63.0995846  14.8735130  57.7916431  62.1460962  14.8436856
  57.1261358  63.2684803  15.6107223  37.5916100  78.9039326  61.9976425
  36.7536664  79.3217373  61.7988396  38.2353306  79.6077013  61.9166565
   0.3719941   0.5413583  32.9465485   0.1882964   1.2933393  32.3835111
   0.6084192  -0.1601267  32.3397088  84.0832329  77.5864553  19.8246706
  84.3794727  77.8021526  20.7089496  84.6660900  78.0818892  19.2492974
  39.3871498  63.7555408  21.0918880  39.3018889  62.9330683  21.5740752
  39.0620685  64.4225168  21.6966176   9.0774506  23.0997658  33.4520912
   9.6227878  22.8764296  32.6977968   9.7024488  23.2858968  34.1527796
  42.3782730  69.7506189  15.7180166  41.6237926  69.1748619  15.5935013
  42.2669363  70.4369736  15.0601768   7.3876750   8.0983067  40.5066681
   7.6377368   7.2344673  40.1788235   8.1303692   8.6614335  40.2886629
  45.6492949  68.5501146  11.9813657  45.5077171  68.9919949  12.8185785
  45.4929876  69.2276192  11.3235033   3.8819286  55.1981926  65.7238007
   3.8897818  55.5775881  64.8450375   3.4224918  54.3648052  65.6207848
  15.0562143  64.6650505  14.2702353  14.1236007  64.8426294  14.3924260
  15.3971016  65.4541159  13.8490427  64.0627480  22.2844648  13.8072217
  64.4355965  21.6693878  14.4388032  64.7519398  22.4040341  13.1538105
  74.8747587  63.4902239  23.4466982  75.7523298  63.8715410  23.4730029
  74.3265343  64.1768837  23.0669856  30.0079727  67.3744774  25.5173039
  29.8609567  67.6979685  26.4061069  29.9462605  68.1541109  24.9653983
  30.7695293  79.0038633  39.8000693  30.4998732  79.7678137  40.3098726
  31.7087173  79.1271496  39.6623874  20.4464436   1.9807912  60.5310535
  20.3608584   1.0356103  60.6557131  21.0369515   2.2620538  61.2299252
  32.5314140   4.7801030  29.8067021  31.9989848   5.5598849  29.6495652
  32.0999002   4.0899575  29.3029881  54.0881491  77.3774576  34.8759508
  54.3578339  76.4621687  34.8001647  53.3918333  77.3683929  35.5326843
  17.2397637  11.4029765  44.6033001  17.4169064  11.3454604  45.5422068
  17.7624416  12.1477795  44.3061352   6.1937863  11.6795146  51.9835472
   5.8346528  10.9508002  51.4773512   6.9559264  11.3092220  52.4288082
   3.6323783  69.2718792  34.0352726   4.0514010  69.7971058  34.7170281
   2.6946336  69.3670368  34.2020416  74.0437937  73.3861256  33.6007452
  74.7579479  73.8965893  33.2191229  74.0575457  72.5584507  33.1201243
  62.0656633  39.0368366  65.9902811  62.2456646  39.4910574  66.8133974
  61.1374426  39.2011714  65.8240557  27.8447151  50.9130001   6.4659423
  28.1452799  50.2837896   5.8102071  28.1474972  50.5531454   7.2996449
  73.5432291  29.1583204  12.8993332  74.2215157  29.6689796  13.3413553
  72.7571726  29.7011805  12.9597282  73.3389950   7.1458817  67.6211023
  72.9196644   7.5588965  68.3759642  73.5836649   7.8767174  67.0534325
  56.7742682  52.4053431  20.9220433  56.3049269  52.9712629  21.5349770
  56.4041662  51.5348005  21.0683799  62.5126219  58.3138180  42.7420950
  61.6366577  58.1082153  43.0686617  63.0005407  58.5851240  43.5196304
  60.5317545  67.3087120  28.4084868  60.3047419  67.1034241  27.5015402
  60.3339577  66.5068150  28.8922930  60.9173918  80.5370808  36.1502647
  61.0870600  80.7195568  37.0744658  61.6931200  80.0610828  35.8537745
  40.2257061  28.1461406  65.3733921  40.1640797  27.9910660  66.3159370
  40.7715225  27.4302649  65.0480652  25.1235032  72.5136662  63.1839705
  25.6851816  71.8229675  63.5356569  25.0018072  73.1190395  63.9153719
  38.6024928  75.4253864  53.8267565  38.8793230  75.2582359  54.7276783
  38.2729316  76.3239622  53.8402605  46.2721014  68.8017941  48.9775038
  46.4166260  69.7228432  48.7606716  47.0472860  68.5493231  49.4790840
  76.3788509  48.2136202  31.8435001  75.5174255  48.2337856  32.2603512
  76.8198395  48.9992571  32.1668196  81.3123131  69.7023392  35.5688691
  81.3391972  70.2658367  36.3421583  80.8530903  68.9152718  35.8618975
  24.8004532  63.6072063  33.5283446  25.1735234  63.6401033  34.4092345
  23.9791203  63.1270933  33.6338592  70.8486605  58.6095476  57.3067379
  71.2656021  57.8312588  56.9370651  71.3825512  59.3393087  56.9926643
  47.8196096  53.4713697  24.5366216  47.3629475  54.3093014  24.4620323
  48.6152792  53.6751461  25.0281644  73.2360506  70.3820705  28.8555622
  73.3141088  71.0434532  29.5431018  73.5486364  70.8209610  28.0644274
  19.6593595  21.2646675  53.3967400  18.8290787  20.8325887  53.5971737
  19.4061303  22.1123171  53.0312347  29.9543285  65.2185726   2.6665294
  30.0991035  65.0930834   1.7287004  30.7919979  65.5432653   2.9968554
  53.9538717  65.8628845  48.1045914  53.7830734  66.2921095  48.9429379
  54.8088026  66.1976385  47.8339100  -0.1586285   3.0338702  11.7635834
   0.6642956   2.5927675  11.5527368   0.0186730   3.9608172  11.6036916
  64.2591429  52.1477175  22.2104788  64.1338491  51.9354343  21.2855649
  63.3781672  52.3345900  22.5348043  16.3987732  22.0021868  21.0657239
  16.7524385  22.0598149  20.1781249  17.0191240  21.4443350  21.5349770
   5.1662582  46.8077421  66.8992615   4.7281179  45.9734297  66.7313910
   5.8070749  46.6086626  67.5818682  73.7680721   0.9740442   0.8071268
  73.2961750   0.3139406   0.2993799  73.7051487   0.6699026   1.7125383
  43.3903027  67.1266365  32.6415372  42.4696541  66.9844246  32.4215055
  43.8388824  66.3491583  32.3090649  79.1534948  57.1418571  30.3740501
  79.0401840  57.0825624  29.4254327  79.6945858  57.9209471  30.5023980
  34.2984319   2.3662812  11.8861461  34.7844100   1.7356703  11.3547444
  34.9167061   2.6330251  12.5664532  33.2498002  72.3124599  18.5802722
  33.8221240  73.0703068  18.4605229  32.4093342  72.5866747  18.2133150
  76.8006706  81.1226845  63.4625769  77.6129246  80.8203220  63.8688517
  76.9504929  81.0205173  62.5227118  67.6329088  49.2567301  18.7791622
  67.3263407  48.3694506  18.5921240  68.5688019  49.2338133  18.5796237
  41.0779190   8.4497809  63.7922239  40.2502394   8.1571352  63.4107351
  41.2828016   7.7900267  64.4547796  13.1273222  75.1627159   6.4964563
  12.4732947  75.8125353   6.2391382  13.8955986  75.6793785   6.7394435
  50.5346966  40.9347630  67.2589207  50.4045820  39.9992490  67.4142313
  51.1756659  40.9728241  66.5490389   1.7066674  31.0652947  21.1301255
   2.5956702  30.7104969  21.1252022   1.8190055  31.9956541  20.9350729
  40.3100204  67.9816532  15.4241312  39.4755316  68.3801985  15.6711662
  40.0660610  67.2327566  14.8801923  60.2226257  64.5635605  36.9847631
  60.7262039  64.0162992  36.3821459  59.7864914  63.9408016  37.5663018
  70.5487967  76.3090944  15.4265237  71.1927700  77.0095015  15.5311918
  70.1962233  76.1744785  16.3061845  80.9497166  35.8981848  25.0624847
  81.6737461  35.2818394  24.9523878  81.3653469  36.7032528  25.3712606
  80.3236485  68.0962324  26.8389440  79.8007965  67.2972393  26.7721558
  79.6808434  68.8052702  26.8216467  40.0417948   7.1098441  30.3580523
  39.6831822   7.6484859  31.0633850  40.9781837   7.0570642  30.5494094
  80.4598713  41.6223145  29.0585709  79.5485115  41.9117785  29.0154290
  80.5892944  41.3742113  29.9739528  14.0016341  23.6192226  26.0517979
  14.7799695  23.4234262  26.5734196  14.3388700  23.7857604  25.1715875
  74.3540764  76.7917776  37.2334552  75.2492332  76.7390156  37.5683308
  73.8080645  76.8497133  38.0175138  59.9149513  51.1006880  51.2941885
  60.1605749  51.6734314  52.0207357  60.7272100  50.6534481  51.0566044
   9.9523675  27.9586768  67.3313665  10.6228268  27.3208332  67.0866728
   9.5348805  28.1968284  66.5035868  70.2014732  66.9027424  30.9396029
  70.6506586  67.5186014  31.5185523  70.1731968  67.3474693  30.0924611
  74.3139935  62.8267479  41.1849451  73.9666080  62.2985029  41.9036341
  73.6067247  63.4353590  40.9714174  78.1666517  68.6845684  35.4806805
  77.6841879  69.3312407  34.9656296  78.0182648  68.9436769  36.3901186
  81.8828583  38.9868832  15.0012338  81.1041832  39.0327168  15.5560243
  81.9960308  39.8789477  14.6731389  35.1579976  46.1776733  16.1291587
  35.1822209  46.1516857  15.1726186  34.6815920  46.9819927  16.3349187
  37.4389458  62.5899935   3.2785049  36.6749310  63.1439495   3.4386361
  37.1520352  61.7099524   3.5223094  34.4130230  75.0421667  18.7459660
  35.3051805  75.3353977  18.5607505  33.8541341  75.6844187  18.3084869
  67.1263123  40.2027893  37.6715875  67.3192310  39.4285154  37.1428919
  66.1985922  40.1176310  37.8914094  58.9618778  55.8014488  17.6699185
  58.2572317  55.2064419  17.9261827  59.0079117  55.7218838  16.7171419
  50.5954885  61.6477633  59.1961670  50.1557350  62.4976826  59.2181253
  50.5517864  61.3791180  58.2784748  51.2532425  62.7827787   9.2691529
  51.5897942  63.4855986   8.7132698  51.3550901  61.9905758   8.7416363
  25.7031465  48.9406729  54.2459536  25.2989578  48.6288738  53.4362364
  25.8642673  48.1460094  54.7546625  77.7454138  39.8747087  22.7258062
  77.6253080  40.7639980  23.0589247  76.8589926  39.5176172  22.6712704
  61.0880613  48.2426071  69.7284317  60.9426641  47.3269415  69.9664450
  60.2687550  48.5158062  69.3157291  83.7231731   2.0199312  55.2007675
  83.8675022   1.7473982  54.2946100  82.9300404   1.5550114  55.4672718
   3.5872120  69.0343189  31.4449716   4.4684702  69.3767929  31.2955403
   3.5007319  69.0031481  32.3977470  49.1857767  68.8965988  38.0519605
  49.5266008  68.2323694  37.4529052  49.0323639  68.4247732  38.8705420
  55.3906727  71.7664003  47.1287632  54.6175385  71.2047482  47.1838427
  56.1294556  71.1577702  47.1301842  70.8206034   4.1161388  26.8819404
  71.5874100   3.5765365  27.0744658  70.3306723   3.6127827  26.2316847
  71.9635010  67.5684643  19.7027194  71.6743898  66.7450905  20.0960469
  72.3493671  68.0583239  20.4289246  85.1826191  27.0466924  16.6205478
  84.2395401  26.8986869  16.6907465  85.3626633  27.0030403  15.6814480
   7.1951127  71.2643862  53.6352634   8.1093705  71.5096998  53.7773418
   7.2280669  70.6125069  52.9351187  68.1053638  30.4071665  55.6990719
  67.5442076  30.3177929  56.4693642  67.5762844  30.0687289  54.9767399
  10.1728201   0.7625863  56.5549183  10.7291603   0.7887315  55.7764387
  10.7446504   1.0476488  57.2676468  64.4500494  41.5320301  55.9371996
  65.1959276  41.7009926  56.5128279  64.5277739  42.1889782  55.2453804
  72.6262236  60.5005169  32.7767348  72.5052214  60.7924080  31.8731928
  71.8049335  60.7263756  33.2134247  24.1105390  41.5588903  26.9278097
  24.6639204  42.1435785  27.4456310  24.2312336  41.8523455  26.0247326
  72.0159578  79.0111971  58.3663511  71.2579870  79.3668270  57.9024124
  72.3814821  78.3618355  57.7655554   9.4304448  35.1956153  61.2339592
   8.6017549  35.1170373  61.7065382   9.1900384  35.1037955  60.3120041
   1.5758118  62.6250553  11.8385231   1.2700777  63.2643509  11.1950517
   1.1765850  61.7994499  11.5642476  64.9328375  50.3146744  28.9725304
  65.0878096  49.8849869  28.1313491  65.2173233  49.6742868  29.6246052
  50.1557875  44.0461397  61.8295908  50.7838535  43.3442307  62.0001221
  50.4815483  44.4715548  61.0364103   2.7237549   9.8414934  13.2594967
   3.5637414   9.6179754  13.6603630   2.5295761   9.1027856  12.6825762
  73.3385324   6.9902480   2.0049714  74.0003920   7.6635396   2.1626128
  72.7179241   7.4007875   1.4028627  66.5191317  76.7547894  53.6864519
  65.8518934  76.7393160  53.0003166  66.3491631  75.9674740  54.2036295
   3.8820934  59.8383093  30.6276631   4.2990667  60.3891897  29.9651694
   4.5730868  59.2394018  30.9106231  66.1180401  76.4734364  17.5242436
  66.0719967  76.5815783  16.5742874  65.7351828  75.6111765  17.6859844
  10.1895666  72.5997353  28.6957216  10.6875288  72.6233768  27.8785872
   9.3832809  72.1351290  28.4714937  68.6801243  58.5623121  17.3089039
  68.5103893  59.4382811  16.9623554  68.3552885  58.5936451  18.2087564
  42.9445267  70.3423309  67.5041485  43.7627506  70.7071829  67.8412342
  42.6885223  69.6877480  68.1539297  10.6079483  75.5119658  19.5204139
  10.2005255  76.3586092  19.7032571  10.7633948  75.5199480  18.5759532
  15.8733642  21.4696288  38.0012202  16.7285693  21.0433054  38.0569077
  15.3119135  20.9571028  38.5828733  12.8316140   5.1311207  40.2247667
  12.2673166   5.7770145  40.6497669  12.7231348   5.2975196  39.2884064
  74.8587990  68.3216763  47.5191355  75.1123524  67.8352547  46.7347050
  75.5396986  68.1152964  48.1594610  77.8760481  44.2396116   5.1746595
  78.7548971  43.9640617   5.4352885  77.5997305  44.8428726   5.8645558
  42.3440123  48.8551903  20.5681896  41.5127802  49.1009235  20.1621079
  42.0972633  48.4958363  21.4203739  74.5395994  55.0715017  59.0818262
  74.8353672  55.1277637  59.9904442  75.2566862  54.6336889  58.6231995
  19.4161057  13.1226659  18.5438740  19.5226049  13.3330035  19.4715846
  20.3051710  13.1440187  18.1898439   3.0855095  41.4048338  30.9100509
   3.9760408  41.4796877  30.5671477   2.8707778  42.2868919  31.2135220
  75.7269907  78.0547571  52.2093725  76.6247272  78.3691835  52.3163176
  75.6915474  77.7332306  51.3084841   4.5619878  14.7595263  58.3596230
   4.6405390  15.6697094  58.6453295   4.7880274  14.7800279  57.4297237
  25.7904100  31.7106223  31.3086200  25.1217222  31.8485236  31.9794965
  26.5871215  32.0856404  31.6839123  22.1652460  23.7678909  41.2215757
  21.7093349  23.7580442  42.0631695  22.4830818  24.6663141  41.1318541
   3.7978604  10.1146972  47.8744984   4.4238618   9.8085761  47.2182608
   3.4390652   9.3132222  48.2554626  35.6010509  19.4732308  49.3059397
  36.5544796  19.4405675  49.2275667  35.4431677  19.9937952  50.0935411
  25.9706140  56.1301994  47.2838306  26.7658353  55.7072783  47.6078510
  26.2000918  56.4298248  46.4041710  24.3943000   5.0618792  27.3993301
  24.6929812   5.8233768  26.9021940  23.8665938   5.4303396  28.1078434
  71.8721628  53.1934834  44.4852352  72.3836517  54.0021849  44.4604874
  72.5268269  52.4977732  44.5455074  52.5869370  75.6578827  14.2264044
  51.8856764  75.0501823  13.9915335  52.9229879  75.3256369  15.0588191
  47.8034925  77.8072596  16.3452363  48.3814907  77.3547077  16.9595194
  47.7715588  78.7085295  16.6660559  39.9408627  81.1993980  15.2510178
  39.6887517  81.0341930  16.1595201  39.1132903  81.3633537  14.7988296
  69.1008615  74.2814541  48.8045406  68.7225819  74.5222759  49.6502066
  69.4605064  73.4053898  48.9437914  38.4473968  11.1636925  42.2258806
  38.4505486  10.3721523  42.7641058  37.5277138  11.2915707  41.9933748
  13.1522465  26.4670968  32.2164345  13.5280871  25.6895018  32.6291394
  12.2059917  26.3472939  32.2969341  82.7060413   6.3582516  25.7746911
  83.3838177   5.7209796  25.9999251  81.8998814   5.8442438  25.7283902
   5.8890748  80.2664280  25.5807710   6.5806496  80.5968094  26.1541867
   5.7472593  79.3654156  25.8711195  78.7949324  70.5069017  24.7213411
  79.2336082  70.7072210  23.8944983  78.4683990  71.3520384  25.0301266
   4.5232037  59.2208052  16.9167304   4.6781039  59.2004633  17.8610945
   3.8062590  59.8450994  16.8050098  75.7297134  79.9388838   2.5427130
  75.1142263  80.6708717   2.5826964  75.4100323  79.3209696   3.2001448
  78.5031462   7.3307425  55.6095409  78.4082413   6.7383289  54.8637056
  79.3495703   7.1000999  55.9924221  13.7973022  16.6147900  58.7665367
  13.2140839  17.2713065  59.1474247  13.2661164  15.8197713  58.7216043
  80.1974583  72.2805405  17.6388431  79.2557192  72.1199036  17.5792217
  80.2944946  72.8577805  18.3962166  83.5677624   0.0431882  25.7639122
  82.7097702   0.3732285  26.0306454  84.1308117   0.1995705  26.5220380
  24.8881269   0.7586583  36.2429738  24.7213745   0.9150089  37.1724796
  24.3248701   0.0175577  36.0199404  24.8637581  74.9182034  30.2073050
  25.4424191  75.4631281  29.6739769  24.0059376  75.0006485  29.7906733
  37.5749254  30.6531334  26.6068292  38.1357360  30.0685382  26.0969567
  37.1482873  30.0802660  27.2440386  73.1224489  65.4592943  12.4689054
  72.1994209  65.2835608  12.6515758  73.3149958  64.9406195  11.6877961
  59.1290903  73.5732412  61.6343594  59.3376875  72.8037357  62.1640587
  59.8582506  74.1741848  61.7874050  86.1135483  17.3246586  29.5312166
  86.0091972  16.3899326  29.3533683  86.9997692  17.5279248  29.2319918
  52.4221563  74.7312260  10.4453158  52.7202272  75.6162691  10.2353382
  51.6125441  74.6262884   9.9455708  62.9361391  78.8923073  45.1171303
  63.3261538  78.1844997  44.6041727  63.1353426  79.6859360  44.6204329
  45.0565147  68.3270502  19.5636404  45.5313444  68.1550884  18.7505019
  44.3167877  68.8734150  19.2980790  67.5399637  74.0097952  16.2834334
  68.3616352  73.5342836  16.1610568  67.6038837  74.3753004  17.1657884
  64.6135139  60.8560562  55.4319429  63.8428450  60.3249693  55.6325674
  65.0166130  60.4193401  54.6815968  49.8492670  71.6308784  37.8154683
  49.7455978  71.8350697  36.8860626  49.9569559  70.6801033  37.8412461
   0.0808271  63.9515448  27.3863220   0.7981141  63.6066294  27.9180789
  -0.5816809  64.2199373  28.0229330  77.4814272  50.8369875  32.2141957
  78.3644438  51.1534691  32.0235372  76.9352722  51.6227579  32.1915364
  68.6054134  68.6868429  18.7371933  68.8604498  69.0193129  19.5978057
  67.9295540  68.0349541  18.9229202  82.0837307  75.0610876  24.9141836
  82.3824978  75.7487345  24.3191099  82.3628330  74.2458057  24.4974685
  17.6992667  62.4636412  31.1475158  18.3324730  63.0638361  30.7537556
  17.3778117  61.9395113  30.4139018  81.6111755  62.5753880  25.6147218
  81.0597610  62.5600147  26.3969851  81.7502594  61.6526508  25.4015470
  35.2260017  76.9385767  55.3985739  35.3991151  77.5908184  54.7197199
  34.2949367  76.7370033  55.3051901  67.3181820  76.4298391   8.7264413
  66.4458370  76.7274427   8.9846647  67.9122257  77.0884895   9.0863371
  53.0416727  73.4918165   5.4733372  53.4043837  72.6265764   5.2835149
  53.5256386  74.0855885   4.8993599  72.4073076  23.8805056  52.9025364
  73.2243776  23.3919382  52.8028822  71.7206955  23.2378697  52.7241564
  75.0629187   1.3252680  37.1089959  74.4033432   1.2678723  36.4176941
  74.8349428   0.6216193  37.7165627  63.1107044  56.2544155  24.9221516
  63.0469847  55.3602123  24.5866346  62.4338865  56.7370796  24.4476175
  21.0437894  34.9196720  64.0272141  20.8119082  34.6176791  64.9054289
  20.7806468  35.8398843  64.0131140  46.4382982  75.3532696  31.5585780
  47.0965910  75.3073215  30.8652020  46.1367035  74.4508076  31.6626906
  54.6986485  50.7381821  51.7617989  54.7888899  51.2991333  50.9914589
  54.3873262  49.9023819  51.4143181  71.9862747  66.4949560  53.4844875
  72.0061398  65.5501938  53.6369896  71.2497330  66.8069935  54.0102005
  68.2857561  77.2279644  46.1206341  68.7193871  76.3837957  46.2454128
  67.5914431  77.0491505  45.4864502  23.3961129  79.0616703   2.3073769
  23.0697203  78.1662846   2.2180411  23.3647752  79.4177341   1.4194193
  15.2813721   8.3376592  36.4107347  15.6883204   9.1946274  36.5381336
  14.3450236   8.5247350  36.3437581  58.5787582  79.6071148  46.0318089
  57.7664566  79.1601944  45.7937717  58.6831665  80.2856159  45.3647518
   7.8672212   0.5098562  41.1414433   7.7377522   0.7652137  40.2280617
   8.5390252  -0.1711089  41.1068392  12.8568447  47.9132271  17.4287748
  12.4156857  47.6375341  16.6252804  12.7582538  47.1696186  18.0233824
  58.8275909  19.1564870   5.5012560  57.9177475  19.2736113   5.2279508
  58.8343620  19.4072080   6.4250118  67.5883722  14.7349834  47.8921747
  68.4027624  14.9578595  48.3430958  67.7878904  13.9241934  47.4241543
  79.5306396  41.4630270  37.0039725  80.1943111  41.0118294  36.4822435
  78.8933325  40.7826424  37.2211075  65.0448322  66.5566444  12.9843342
  65.3571606  65.6654072  12.8281832  65.3968239  67.0652294  12.2538006
  54.7822666  80.2688122  44.4334364  54.0400028  79.6989298  44.6347141
  54.7622776  80.9385681  45.1169968  54.0686846  67.4296284  58.3889341
  53.5749626  66.6311073  58.5755825  54.1371727  67.4512815  57.4344349
   0.0475159  49.3421793  47.2687721   0.6551813  48.7476730  47.7087021
   0.0642496  49.0666771  46.3522291   6.6848511  12.8947520  23.6539340
   7.4423575  12.3208141  23.7680030   5.9311926  12.3388433  23.8519144
  43.6214828  73.6280537  65.7296133  44.2983294  74.2167091  66.0636711
  44.1023779  72.9718685  65.2252388   6.5232158  80.9987450  59.0078640
   6.8888587  80.4118347  58.3459949   6.0666466  81.6727352  58.5043621
  24.0442657  79.4918680  22.4460673  24.1149426  80.3623390  22.8378773
  23.9348054  79.6587563  21.5099072  57.6573324  71.8848133   6.3970035
  57.4830532  72.2426319   7.2675347  58.6118698  71.8824768   6.3257045
  71.5019846  39.7042990  28.3986402  72.2549105  40.2880573  28.3061004
  71.6098309  39.0613604  27.6977611  12.1670425   7.0781821  21.1490965
  11.4183497   7.0673126  21.7453957  12.6659322   6.2936240  21.3767123
  59.0064335  63.4419775  34.8299980  59.0587187  62.4881268  34.7694302
  59.2934275  63.6414766  35.7211041  61.5182781  60.6696272  52.6511240
  62.0897341  61.3620710  52.9830694  61.9555426  59.8565149  52.9038715
  70.0607824  79.2610216  32.6599526  69.7955132  78.4445953  33.0834055
  69.7956371  79.1541719  31.7464352   4.7061798  79.6596193  60.6332207
   5.1907021  80.0717735  59.9179554   5.3831172  79.3642378  61.2420988
  23.9843774  17.5154495  37.3510838  24.0221238  16.6416943  36.9620347
  24.6429205  17.4970853  38.0455017   2.7731478  15.4170394  35.8826256
   3.5444936  15.2402020  36.4211297   2.5735867  14.5780778  35.4672337
  78.0072260  79.4608784  20.4325056  78.0081606  79.3549347  19.4811869
  78.3259535  78.6226416  20.7671642  83.2363510   8.5211533  55.4031658
  84.0796089   8.1447184  55.1512575  82.9329681   8.9762485  54.6176195
  84.7111034  73.8085032  36.4812136  84.0432262  73.9637661  35.8133292
  84.5175362  74.4479370  37.1666956  31.8105578  27.0339322  35.0672698
  31.4793015  26.1983252  35.3962970  31.2484932  27.2366571  34.3194604
  32.6653457  68.3355236  53.2523823  32.1253276  69.0195799  53.6482048
  33.1552124  68.7854099  52.5640059  16.8226838   7.1351475  53.4414577
  16.6908336   7.0909476  54.3885040  16.8156314   8.0713278  53.2420874
  38.0870223   3.7033784  37.7271533  37.6966381   4.2840403  37.0739579
  37.9274702   4.1416022  38.5630560  75.1473427  76.0239410  46.5426588
  75.1798201  76.2998533  45.6266642  76.0475826  75.7726526  46.7491722
  23.1452346  20.0158048  52.0736980  24.0534258  19.7152090  52.0411539
  22.7764034  19.5809078  52.8425026   7.8983766  72.3175526  39.6562505
   7.7460140  72.2287560  40.5970669   8.8440967  72.4426460  39.5775318
  58.4829473  17.1069360  12.4008512  57.6642036  16.8351102  12.8155839
  59.1502380  16.5480232  12.7990627   9.8863482  13.0307126  39.5021152
  10.6303954  13.5062277  39.1326380   9.3862951  13.6971521  39.9733210
  68.2101250  14.8055732  43.8019085  67.3286772  15.0715005  43.5400581
  68.7573767  15.0110316  43.0439281  46.0909176  65.0769901  33.9641762
  46.8455696  64.5811272  33.6465955  45.3845453  64.4328928  34.0132260
  35.9343696  47.9700470  37.4520707  36.8336105  47.7583599  37.7026391
  35.8612251  47.6699543  36.5460777  85.9016514  22.8687143  22.7901220
  85.5082607  22.8138947  21.9192195  85.5117798  23.6510515  23.1802273
  35.0915766  66.8994236  43.1138659  35.5453992  66.5726709  42.3370075
  34.1762233  66.9723129  42.8435946  63.1281471  80.8410740  42.6314020
  63.2241726  81.7925072  42.5892782  63.8543510  80.5035973  42.1070194
  52.1348953  53.5635662  54.4481516  51.9664812  53.0239058  53.6757326
  51.2867403  53.6239147  54.8877192  77.0328903  64.9346113  34.6295619
  77.3942041  65.0392532  35.5097532  76.9594669  65.8277035  34.2930627
  43.5941696  24.7098160  41.5071869  43.8336802  24.6221757  40.5845928
  42.7643967  24.2390132  41.5849924  67.8194475  73.8026810  44.1962099
  67.6311970  73.0134296  43.6883926  67.7741480  73.5168982  45.1086283
  43.8736486  77.9429817  39.4743705  43.9892578  77.7836847  38.5376239
  43.0345154  77.5335360  39.6851754  34.7466326  47.6183701   3.6669797
  34.1925049  47.3849106   2.9222158  35.4730129  46.9961214   3.6294129
  72.9946136  48.4083080  17.5827789  73.8063717  48.4618902  17.0783842
  72.5779772  47.6010942  17.2810388  79.3524742   5.0746304  37.9734278
  80.1999283   4.7167209  38.2379198  79.3858004   5.9927189  38.2421923
  25.5468678  13.2953370  47.7567434  26.1468029  13.6163616  47.0835018
  24.6984577  13.2435834  47.3165655  47.8176308  75.8949375  20.0107813
  47.1899605  75.7835674  20.7248259  48.6030531  76.2414742  20.4341650
   7.1337020  22.0098567  28.5186148   8.0456883  22.2122955  28.7272549
   6.7803305  21.6369200  29.3262529  82.9088593  79.1614008  43.9702606
  83.7539864  79.5824671  44.1273785  82.9186440  78.3872509  44.5331335
  26.5281749  61.4934874  13.3238411  27.0252204  61.5105152  14.1416967
  26.4078450  62.4157095  13.0974483  71.1563873  51.8233681   1.2567651
  72.0224094  52.0144176   0.8965749  70.7406187  51.2667179   0.5983514
  15.2050126  13.5866296   7.1908396  15.0042450  13.4435606   6.2659311
  15.6042957  12.7657998   7.4790114  22.7507329  59.2563677  54.9680138
  22.2941947  58.5855246  54.4602966  22.3352098  60.0782871  54.7072029
   8.0388123  13.9705205  10.9073722   8.9324635  13.6806715  10.7240522
   8.1471270  14.7874165  11.3943851  12.2892225  23.9871526   1.4182109
  13.0640185  24.2962861   1.8876371  12.6320934  23.3752513   0.7668684
  52.1112347  47.1843910  66.1423111  51.2990141  47.2231197  66.6473103
  52.5462818  48.0173969  66.3241577  75.2009726  17.3399580  27.2808576
  75.9088469  17.3054898  26.6374588  74.9567986  16.4245796  27.4175811
  16.9504440  77.6217604  39.5001483  16.0334802  77.5617599  39.2321730
  17.0942605  78.5554218  39.6545148  64.6370411  61.9634819  66.2242985
  65.0059366  62.7129745  66.6916370  63.8652945  62.3145008  65.7799721
  58.1782436  80.4468918  53.9548206  58.3363581  81.3494396  54.2316580
  57.9409695  79.9873829  54.7602892  62.1901117  80.9842416  19.1964114
  62.0566918  81.6913700  18.5652220  62.9125194  81.2872851  19.7464335
  57.7828217  25.7012868  60.3179550  57.5319290  25.9555793  59.4299126
  56.9997358  25.8637762  60.8438873  42.4621391  66.6723013  60.5889702
  42.3429489  67.5799608  60.8685684  41.7807579  66.1869478  61.0541344
  34.1442060   0.1873763   6.1914855  34.3949437  -0.5821455   5.6804097
  34.8173618   0.8377177   5.9911126  43.4730959  37.5509262  56.8672180
  44.3779612  37.3881555  56.6008472  42.9444838  37.1222043  56.1941624
  38.3936381  31.7434573  28.9318347  37.5952458  32.2098160  29.1794419
  38.2395530  31.4678335  28.0282187  33.5617900  77.3868370  11.5784609
  34.0987825  76.8664646  10.9809005  33.5772610  76.8983078  12.4014592
  52.3257589  72.2974920  38.0108547  51.4220381  72.0639181  37.7988005
  52.3419428  72.3487616  38.9665437  34.3567276  72.3009872  23.0772758
  35.1528645  72.7816772  23.3038402  34.4412661  72.1257734  22.1400523
   0.6981707  78.0448246   7.1625459   1.2810478  78.6176252   6.6641659
   0.4187660  78.5770369   7.9074717  71.8851089  41.7465067  32.6214838
  72.4747038  42.1213055  33.2758069  72.4277687  41.1223269  32.1396589
  17.2940660  80.8625317  24.9552560  17.4807370  80.4665375  25.8064771
  16.8846321  80.1607227  24.4492292  30.0030875  21.2676620   2.8975448
  29.5124173  21.0862637   3.6991498  30.9205198  21.2552428   3.1703001
  12.6381862  28.7524390  24.0789270  12.0094705  28.1243968  23.7232375
  12.8289700  29.3404007  23.3480811   5.5362493  66.5638065  17.6858115
   6.2117797  65.9994411  18.0618143   5.0455081  66.8862581  18.4417415
  64.7910261  57.8720665  68.4704447  64.7693634  56.9248915  68.3339930
  65.3495550  57.9906654  69.2386961   7.5385851  58.2611847  34.0630007
   8.0816984  58.7399006  34.6891761   6.6571903  58.2960463  34.4347000
  79.8177719  36.4953637  29.0997910  80.0214672  37.3167253  28.6524606
  79.0472078  36.6965437  29.6308112  64.1171885  29.4107461  22.9659843
  64.4112110  28.7844038  22.3045635  64.6312523  30.1996732  22.7940321
  81.4463902   8.7564653   9.5169079  81.1115932   9.6406871   9.3675834
  82.1027565   8.8620079  10.2055836  83.8125324  73.8285923  30.6029749
  84.4026947  74.5150375  30.9140015  83.4038162  73.4858704  31.3977861
  82.7511978  51.8675804  67.7730322  82.6227665  52.8154325  67.7367640
  82.1358776  51.5679312  68.4422207  81.3010979  39.8550844  70.7652092
  82.1476650  40.3010702  70.7394934  81.2956047  39.3062329  69.9810123
  82.8627872  71.4370441   8.9300531  82.4791431  71.1350441   9.7533673
  83.5223198  70.7769203   8.7167817  72.9207945  71.7173195   3.7194112
  73.0524302  70.8642912   4.1332248  71.9749928  71.7742252   3.5835642
  80.5525494  19.0486562   2.9327831  79.6319485  19.1765189   3.1616160
  80.5976963  18.1462574   2.6167598  48.3430004   8.4679562   2.4218360
  48.6091900   9.1730744   3.0119067  48.8121176   8.6475778   1.6070369
  62.9681444  63.7896585  20.1115727  62.0277882  63.6246490  20.0427485
  63.2447624  63.9767838  19.2145228  71.3893509  53.9522791  53.4697962
  71.5323639  53.2560825  52.8286362  71.6068935  54.7579861  53.0010223
  32.7224493   3.7591004  38.8343310  32.1657157   3.9565769  39.5875120
  32.3782086   2.9342550  38.4917521  76.8155432  55.3110266  39.6901822
  77.3633432  54.5889807  39.9980688  77.3649740  55.7764769  39.0595388
  41.3492441   0.3942171  44.3728590  41.2625885  -0.5166069  44.6541452
  40.5161905   0.5931875  43.9454603  82.0426750  61.9243670  53.5300589
  81.2438202  62.2479582  53.9464188  81.7330551  61.3230085  52.8527594
   6.2779415  62.6080847  11.5523887   6.2460816  61.8008947  11.0389113
   5.3642595  62.8853798  11.6196573  16.5342450  77.2608471  33.2754230
  16.0502613  76.4445448  33.4004879  17.1209288  77.3094940  34.0301847
  62.5948048  17.1306908  44.5039177  61.9044018  16.4993680  44.7064209
  63.3485270  16.8329847  45.0133324  29.7386265  29.7792411  36.5232587
  29.9487042  30.4418159  35.8651614  29.5574713  30.2804208  37.3183894
  25.5493236   0.1781389  47.4406099  25.2031994  -0.6386015  47.0809364
  24.9949884   0.8604899  47.0620060   2.8429130   9.4906116  36.8779945
   3.7415913   9.4911563  37.2075534   2.6049751   8.5645628  36.8326998
  27.0371962  61.6130781  41.3206053  27.6411724  61.7112827  42.0566750
  26.4601946  62.3744297  41.3810158   6.2250364  54.3908930  30.4681849
   6.5633076  53.8392258  31.1735010   6.5208381  53.9615345  29.6654463
  40.6516695   8.0970216  42.6122141  40.9271431   7.4529797  41.9598675
  39.9430990   7.6659322  43.0900431  79.1549444  42.2382832   1.6969278
  78.6532354  43.0378485   1.8557109  79.0640831  42.0811749   0.7570906
  12.2355437  28.0039954  20.0352859  12.3507476  27.1633029  19.5923436
  12.0771217  27.7727699  20.9505272  38.2245302  76.3941717  10.9383321
  37.9240203  77.0622683  11.5544307  38.2579374  75.5892897  11.4553213
   0.7761229  73.3753061  37.4652529  -0.1570592  73.4064627  37.2544646
   1.0681967  74.2840815  37.3941708  24.6998405   1.4332539  18.3990037
  24.0832043   1.1278505  19.0643775  25.4404283   0.8303203  18.4640408
  32.6521230  40.5283833  27.0356488  32.4589086  41.0122824  27.8386092
  32.0592451  39.7772980  27.0601034   2.4512376  36.0962462  41.5586662
   3.1235689  35.5794787  41.1146450   2.9079655  36.8865943  41.8467331
  27.7179146  75.8735228   2.1280254  28.6047077  75.9396219   2.4822296
  27.5812554  76.7019176   1.6683272  18.9785743  76.8574047  44.0298080
  19.5236850  77.3209715  43.3940458  18.1106091  77.2488499  43.9316320
  50.7624865   1.2200736   2.3928910  51.5746689   0.7136460   2.3818022
  50.1462507   0.6956884   1.8815130  48.1286812   4.6017891  60.0200701
  48.2831573   5.2834851  60.6740284  48.2279158   5.0491738  59.1796923
  22.7687407  77.6547050   6.7607957  22.5180459  78.5765123   6.8212956
  22.4349880  77.3710918   5.9096766   9.4387573  17.4482214  62.4019957
   8.6677772  17.4270535  61.8350935   9.1815013  16.9457698  63.1750345
  59.4058609  32.5196838  25.4517508  59.3484592  31.7164803  24.9342585
  60.2055311  32.4157095  25.9674549  86.6447830  42.7955675  66.6116619
  86.7625713  42.1417856  67.3008156  85.7028961  42.9657888  66.6014576
  40.9415293   1.1048158  29.7529149  40.9212399   0.3418754  30.3306174
  41.6067743   1.6771087  30.1352215  40.5402422  15.4414535  38.0752563
  40.2762651  14.7065473  38.6288428  40.1396942  16.2072623  38.4867549
  31.2282634  71.9868183   8.1888419  32.0189428  72.4542427   7.9194528
  31.5119553  71.4376879   8.9197367  26.0579753  74.9826908  18.5465050
  26.3147497  74.1802788  19.0008521  26.3916516  75.6886625  19.1001284
   9.0758008  56.2374115  56.4374208   9.7877038  55.9668112  57.0172501
   8.5772198  56.8730688  56.9508314  14.1142929  30.9694672  17.7027726
  13.6636972  30.5949450  16.9458532  13.4414542  31.4793754  18.1538987
  43.0393696  11.8565261  40.3623533  42.4243879  11.3955235  40.9328890
  43.7505531  12.1250093  40.9440422  66.8522453  20.0860500  26.8992996
  67.4483538  19.8195422  27.5991988  67.2977543  20.8167386  26.4705253
  62.0826244  62.0326757   2.1321018  61.9733429  62.6021719   2.8936574
  62.8520155  62.3805809   1.6812974  50.2477741  78.3192968   7.7742767
  49.9865818  79.0551567   7.2206312  50.7456541  77.7459764   7.1914816
  70.5622768  62.3199940  64.7468233  69.6706533  62.0509720  64.9678898
  70.9143782  61.5884972  64.2397070  13.3896065  75.6060648  42.9544163
  13.4734523  75.6190825  43.9078522  13.1945097  76.5130472  42.7187347
  42.5699902  20.6357813   6.5694076  42.4322033  19.8580027   6.0287541
  42.9748917  21.2700510   5.9778082  30.7790923  17.7292573   0.5497359
  30.4414415  18.5251880   0.1389824  30.2784657  17.6477647   1.3615015
  15.3027487  58.5474014  39.3687034  15.0761020  57.6547909  39.6296811
  14.5006967  59.0498018  39.5120192   6.3525069  23.3773351  57.5188303
   5.8767635  24.1666913  57.7773237   7.1374512  23.7039900  57.0790720
  54.1614103   7.7884817  22.8761482  54.4222450   8.1430370  22.0261550
  53.2771826   8.1273723  23.0158877  51.9837093  31.6343594  27.0430827
  51.0761118  31.3731599  27.1988845  51.9216871  32.5306940  26.7129827
  63.2044125  25.2247286  30.6682062  64.0281296  24.7648668  30.5061793
  63.3756351  25.7559896  31.4458179  33.0628109  41.7085505  24.6360350
  32.9469037  41.1632729  25.4141545  33.1951189  41.0836077  23.9231730
  64.0952301  28.9217353  62.0724249  64.5351219  29.1117024  61.2437868
  63.2226753  29.3025661  61.9731998  23.0676413   7.6529682  18.2259250
  22.5438046   7.1076316  18.8128102  23.0667448   7.1791577  17.3942184
  13.9180529  79.4909811  34.4113088  14.4367588  79.0520096  35.0854611
  14.1697061  80.4121399  34.4774199  71.9927073  71.2763262  67.2194910
  71.6997004  72.1874094  67.2021103  72.2674894  71.0959101  66.3205051
  60.7138252  29.3242264   7.4987084  61.0856295  28.8347697   6.7649353
  59.7944117  29.4478154   7.2628403  39.5113254  22.2040272  22.3979306
  40.2089405  21.7804074  21.8978214  38.7316990  21.6806769  22.2121358
   1.1211197  72.2354412   0.7893822   0.2593493  72.4649334   0.4416507
   1.6002423  73.0638885   0.8080415  25.3228211  27.8157234  26.3947511
  25.2586555  28.6401939  26.8767905  24.6478581  27.8801560  25.7190990
  13.3888543  55.9614182  37.4008131  12.7082944  55.5460930  37.9305029
  13.0172849  55.9982157  36.5194416  26.6603470  72.0987320  37.5059772
  25.7872581  71.8719721  37.1857762  26.9246316  71.3457584  38.0345798
  21.4946246   6.8958575  51.9612551  20.7150698   6.3407677  51.9411373
  21.8767548   6.7409152  52.8250837   0.6495860  45.7928371   4.2127198
   1.2259944  45.3008604   4.7974792  -0.0271775  46.1496592   4.7879618
  24.2211080  16.2837803  17.2592330  24.0489078  15.6168532  17.9239035
  23.3525681  16.5672088  16.9736814  33.3130360  23.6397576  24.5792413
  34.2334986  23.5375762  24.3372965  33.0840898  24.5209193  24.2836595
  26.4467597  26.0293841   9.6977025  27.3744130  25.8725739   9.8740661
  26.0013604  25.2631259  10.0592244  49.7299147  21.9600558  30.8734179
  50.0550318  22.6834893  30.3375292  49.9572515  21.1735773  30.3774357
  45.0542974  75.7021952  46.6856289  44.3098974  76.2631655  46.9033670
  44.7387171  74.8127413  46.8453598  29.0366721  80.4026699  35.9340167
  29.9201846  80.3348255  35.5720305  28.4804320  79.9606562  35.2925706
  31.1629105  46.8809652  68.0696821  31.4333510  47.7604532  68.3334827
  30.4233479  47.0247936  67.4792671  80.7425308  22.1813989  64.7129393
  80.3374004  21.8593240  65.5181551  80.5108547  23.1096554  64.6829510
  48.0432224  49.6220970  69.0365601  47.2306728  49.4911671  68.5478401
  47.8670168  50.3785610  69.5959711  66.6782093  20.7808089   3.8214296
  66.3749790  21.0191488   4.6974885  67.3720121  21.4113498   3.6283365
  34.0393496   6.2798899  51.0002708  34.2128992   5.3996807  50.6665897
  34.8215771   6.5033704  51.5046644  52.7083445  10.7602286  45.5499220
  53.3295774  10.1585054  45.1397705  52.1862364  11.0981679  44.8223019
  39.3370533   2.9255068   9.8701745  40.0875282   2.3394343   9.9678308
  39.2374682   3.3325675  10.7307649   5.6422317  76.7418957   3.2984543
   4.8310772  77.0993662   3.6596680   5.5523711  75.7943201   3.3997226
  22.8906417   8.1663156  28.0199385  23.1840515   8.5333532  28.8538599
  22.9269409   8.9018816  27.4084997  44.9537373  11.9300556  49.0283728
  45.3319740  11.5764153  48.2233238  44.0243721  11.7073619  48.9743376
  16.4522517   2.7574596   9.0910530  15.4968381   2.8140435   9.0763897
  16.6629446   2.4955422   9.9872893  74.8534155  10.7864010  15.7606864
  74.3294001  10.0049770  15.9368026  74.9365664  11.2159121  16.6120613
  42.5034380  15.7584441  29.2336464  41.8344212  15.2681530  28.7558794
  42.9350758  16.2893450  28.5642695  38.2593465  77.4876976  50.7378864
  39.0471363  77.3789978  50.2051497  38.0352426  78.4139252  50.6478453
   8.8439995  44.3575239  37.3952556   8.3855617  44.3299198  36.5554309
   8.9968866  43.4385204  37.6149940  32.2895145  26.1068368  10.3623617
  32.7103376  26.3418937   9.5353854  32.0566773  25.1841760  10.2588522
  49.2195702  22.2588801   4.9800894  48.3769560  21.9546843   4.6428990
  49.6632624  22.6292801   4.2170882  47.3826408   1.6747503  25.2227545
  47.2998238   1.9808890  26.1258888  46.8479729   0.8815240  25.1887608
  59.3400669  28.6130643  20.6914425  60.1907539  29.0130043  20.5108452
  58.9298344  29.1994548  21.3271189  32.5755143  40.3866053  13.3511460
  31.7211604  40.6491661  13.6937439  33.1606054  40.4304361  14.1074407
  40.4891443  62.6347113  42.3904848  40.1648712  63.5288477  42.2827578
  41.4355659  62.7066183  42.2665834  20.1308346  59.8929358  19.2449856
  20.9583807  60.1544380  19.6487355  19.9972880  58.9906454  19.5352757
  36.6610122  43.4213161  69.5488024  36.2507844  43.9596796  70.2256393
  36.0487103  43.4530258  68.8137388  57.7448511  43.9157677   3.7598589
  57.0180845  43.8558769   3.1398165  58.2867432  43.1503153   3.5683796
  73.0587292  80.6030178  44.6319723  73.8691664  80.9440804  45.0102568
  72.3730564  81.1717892  44.9820900  79.3046236  35.8035564  70.0261736
  78.7407017  36.5358472  69.7772217  79.3182135  35.2383637  69.2537689
  67.5286865  46.0586596  57.5169277  67.9189396  46.3437176  58.3431673
  66.7330551  46.5843058  57.4339008  24.9669385  61.0001659  64.5530367
  24.0151620  60.9001303  64.5343876  25.3015590  60.1036930  64.5774317
  32.7665281  71.5613270  27.6614928  33.0107832  71.1958408  26.8112040
  31.8273401  71.7310715  27.5883627  42.8050137   9.6097249  50.6350517
  42.8989267  10.0479758  51.4808321  42.2423410  10.1921082  50.1246977
  76.6324902   0.9047640   8.1319100  76.2209320   1.5488501   7.5557125
  76.6913795   1.3449898   8.9798284  81.1321068  43.4931231  62.6338005
  81.0666466  43.3118057  61.6962099  80.2697182  43.8328028  62.8728437
  70.1970816  68.6618948  51.5763807  70.8587265  69.2387772  51.1947155
  70.4628134  68.5646820  52.4908018  11.3987434  28.4535980   0.8391519
  12.2896898  28.2860136   1.1463344  11.3157797  29.4070864   0.8536220
   1.7863786  28.9722419  62.9151917   0.9349234  29.0584707  63.3439350
   2.0092599  29.8627520  62.6439905  60.4644632  30.5471563  55.5947876
  60.6646967  29.7303295  55.1377010  59.5205069  30.6592727  55.4824924
  33.5797787  18.1027102  20.6449342  34.0825295  18.0701864  21.4588213
  32.9872441  18.8457656  20.7589602  39.0707517  13.3840311  11.2597072
  40.0060177  13.5214961  11.4100873  38.8332653  14.0442824  10.6086314
  62.6875591  39.9623680  68.4832382  61.9784355  39.3981194  68.7914515
  62.8456116  40.5663729  69.2087936  27.1963859  23.2404661   3.5421777
  26.6016126  23.5659432   4.2178544  27.3708105  22.3334217   3.7933406
  41.3438034   1.5279721  32.8065205  41.6260386   2.4182674  32.5968838
  42.0168543   1.1971489  33.4013200  33.9335251  31.2767148  21.7585897
  33.0855179  31.3973403  22.1858668  33.7238383  31.1986589  20.8279061
  83.6562729  76.5698338  45.1929283  84.2632866  76.4295483  44.4662285
  84.0687561  76.1319876  45.9374905  13.1529391  47.9153824  28.5334754
  12.4612844  48.5341215  28.7680173  13.4600389  48.2127857  27.6770449
  57.2284651  43.1280756  12.2549891  57.1961498  42.5917912  13.0471909
  56.3162279  43.3661890  12.0895684  79.1440010  53.7293005  62.8500319
  78.7062693  53.4758043  63.6626625  78.5627985  53.4158802  62.1570683
  17.1424854  27.6822543   6.1024427  16.8977392  27.0202255   5.4558772
  16.3429105  27.8312469   6.6071355  42.8548956   4.0131032  37.7321005
  43.3330154   4.4604945  37.0339084  43.3803034   4.1650715  38.5176444
  31.4623070  39.8184133  70.7144451  30.7199621  39.2187476  70.7889938
  31.1651778  40.4925823  70.1033449  40.2307844   4.8999774   6.8813068
  39.8093534   4.9081817   6.0219115  40.0606155   4.0222418   7.2231460
   9.1172558  59.5630026  49.2422247   8.3722544  59.8746109  48.7283182
   8.8330871  58.7164688  49.5869875  42.4905586  25.1285720  19.3175960
  43.2964993  25.1237297  19.8339903  42.7698565  25.3900218  18.4401751
  36.2398815  22.0455837  31.6441607  36.2223434  21.3229680  31.0166669
  36.5014601  22.8065991  31.1258316  78.2576990  50.1520300  70.4948711
  78.6800194  49.8303318  69.6983862  77.3369122  50.2530479  70.2536821
   2.3937674  64.5211363  21.4723802   3.0759555  64.4216776  22.1364284
   1.6114934  64.1431904  21.8741679  28.1303000  20.8026505   4.8577395
  28.5668945  20.0582385   5.2718252  27.3338532  20.4320288   4.4775477
  50.8569574  15.9887016  34.3572783  50.2660990  16.5519571  34.8571372
  51.7258215  16.3623023  34.5046854  80.7784176  44.6597195  66.1890364
  81.5749836  44.2682076  65.8306599  80.9718704  45.5959940  66.2358999
   6.4957744  61.3440037  51.3413239   6.8111992  61.9895554  50.7088661
   6.6437304  61.7522955  52.1943426  28.4275365  28.7676549  20.3815842
  29.3462443  28.9969468  20.2414751  28.2224727  29.1189051  21.2480760
  24.0106416  16.9488192  45.8692932  24.6386313  17.0735502  46.5808439
  24.3872404  16.2475646  45.3376484  44.8232412  69.7793674  61.4600420
  45.4377270  69.9057341  62.1829987  45.3350639  69.3321276  60.7860661
  25.7887793  21.9937658  24.6030855  25.8409619  21.6530228  23.7101102
  25.9869647  22.9261327  24.5156312  57.2321367  61.8270016  64.0060139
  56.9765234  62.6400566  64.4417191  57.5127506  62.1011400  63.1328964
  50.0991249  26.9011045  26.2957048  50.7890224  26.3088012  26.5947819
  49.3563986  26.7127371  26.8693805  41.2598276  73.0420399  22.3033977
  41.1535215  72.4382830  23.0385208  40.5803442  73.7030315  22.4361396
  28.7462950  23.2429075   6.2918127  28.8991141  23.1404257   7.2311610
  28.2114148  22.4861240   6.0522014  35.7191682  30.6378937  24.0943098
  34.9032450  30.6117272  23.5944939  35.7329082  31.5117002  24.4848299
  23.4389043   5.9860396  38.0009437  22.6125431   6.0039771  37.5182033
  23.8988829   6.7762911  37.7178240  73.9784193  69.6787882  64.4738197
  74.8790121  69.8570585  64.7447109  74.0366554  69.5335007  63.5295010
   6.4015442  71.4058924  16.3284016   6.5629774  71.1390066  17.2333574
   6.0505050  72.2935581  16.3994706  25.7549715  75.2063322  41.1847782
  25.1710582  75.9498882  41.0351229  25.1943636  74.4372177  41.0827255
  42.9285097  44.4573307  21.6720009  42.6796961  45.1119518  21.0194707
  43.1221485  43.6714077  21.1610627  53.4125996   3.1013235  23.6057162
  53.9477634   3.6080867  24.2164731  52.5171375   3.3972546  23.7694311
   6.1460280  48.1810522  57.2645903   5.4466146  48.7737322  56.9893074
   6.1755717  47.5116158  56.5810585  16.5537512  66.5846539  26.0926723
  16.3978207  67.0640421  26.9063687  15.7410538  66.6838074  25.5967641
  10.7896185  11.1487079  55.3572321  10.3350508  11.1072636  56.1985874
  10.8279562  12.0827425  55.1514626  83.7914944  48.4326315  55.2678728
  83.5465336  47.5263643  55.0810432  84.6785164  48.5178995  54.9183702
  16.8639362  70.3694105  11.9233549  16.4376378  71.2259817  11.8952811
  16.7033064  69.9934530  11.0578573  70.5590343  28.8785267   9.1713476
  69.6842527  28.7089181   9.5209539  70.5816936  29.8251915   9.0315408
  81.5799809  65.0597048  69.3707180  81.1937809  65.5941010  70.0646162
  82.5245380  65.1619911  69.4872618  20.8852816  74.9048758  51.1311340
  20.3437424  75.2066612  51.8604469  21.7264247  75.3431749  51.2599945
  27.3845673  11.4425981  27.6244378  27.6885724  11.4046681  26.7175889
  27.6472402  12.3112130  27.9289746  28.1725216  67.9194021  33.8274646
  28.8606715  68.5371351  33.5802960  28.6346030  67.2159243  34.2833519
  56.3320494  39.6166396   2.5630289  56.2179089  39.6930933   1.6157389
  56.5067720  38.6869049   2.7089572  55.1272488   4.7215474   6.0931110
  55.4482794   5.1715142   6.8745846  54.4734526   5.3164136   5.7258022
  64.3064070  31.4638853  67.2291374  63.8205004  31.2622142  68.0287981
  65.2213764  31.5012121  67.5078297  15.1308882  72.7997732  22.5110340
  15.4516089  73.0291128  21.6388083  14.6922386  73.5921049  22.8209162
  34.8625064  15.0607884  16.0740793  34.5334315  15.0476587  16.9728386
  35.6808281  14.5656252  16.1113822   1.3422444  60.6818867  22.3892951
   2.0359236  60.8933735  23.0140471   1.6874538  59.9421453  21.8894529
  14.0012920  62.7008486  11.6870296  13.8857794  62.1399021  12.4539888
  13.3819950  63.4185457  11.8197525  60.5962229  77.0552778  17.2628140
  60.4777145  77.3724270  16.3674903  60.5189228  76.1038303  17.1920836
  11.4645743  73.8288212  32.3163056  11.8609250  74.2449570  33.0817938
  11.2402964  72.9466629  32.6124930  37.4625373  27.9381323   7.8206426
  36.8022037  27.3251987   7.4973744  37.0058417  28.4535384   8.4854859
  84.6990681  31.6539860  29.6712565  85.1028728  30.7889128  29.6018219
  84.6660805  31.9759154  28.7704206  54.3699121  23.8881230   1.6825230
  54.7175550  24.0401721   0.8037400  54.7428036  24.5924091   2.2127765
  46.1492634  10.3804147  22.4212384  45.2562428  10.0408936  22.3622894
  46.6992807   9.6640366  22.1041965  44.2498827  26.4596319  27.0770931
  43.2964563  26.3752580  27.0865822  44.4238949  27.1370220  26.4235687
  23.1198311  10.7555485   6.7789501  23.7105060  11.2957478   7.3038512
  22.3244691  10.6875682   7.3071653  46.9623327  60.3015614  33.0098605
  47.9194212  60.2951241  32.9970384  46.7261457  59.5975494  33.6138582
  46.0265732   2.1626821  11.8507957  46.7922735   2.7322999  11.9247544
  46.3844919   1.3120699  11.5966606   6.2063068  72.6990223  27.0949173
   6.3054127  71.8044329  27.4206781   7.0830053  72.9449081  26.7996669
  71.5802336   7.1732384  36.9943428  72.3628855   7.1612710  37.5452900
  71.6143560   6.3472652  36.5118122  80.8600903  66.7793036  41.0022211
  81.2778091  66.6494560  41.8536234  81.2880039  66.1456490  40.4263639
  35.9387350  50.6779957  14.6757734  36.5375018  50.7433796  13.9318407
  35.7188368  51.5854025  14.8867059  40.1879740  40.8747339   3.3379045
  39.7271276  40.5151176   2.5799292  40.4112864  41.7691469   3.0802462
  12.2291315  77.4317455  33.2096624  11.9041276  76.8787909  33.9201880
  12.7163398  78.1273699  33.6512160  63.1934738  48.8190508  63.9928913
  62.7259922  49.3160582  63.3215714  64.1106462  48.8533878  63.7211418
  27.7571368   8.1144416   3.7392342  26.8282795   8.2865274   3.5848299
  28.2132983   8.7594825   3.1987983   2.0280138  70.5292702  11.2469828
   1.5109400  69.9176836  11.7712247   2.9115033  70.4686022  11.6102970
  44.6184540  53.6078501  56.9940805  43.8976622  53.7828732  57.5991058
  44.9787951  54.4718838  56.7945004   0.4044721  68.5146618  12.5966871
   0.1598681  67.7615643  12.0588708   0.7421236  68.1313276  13.4061790
  34.9117875  14.1422629  22.2146082  35.8671474  14.1653800  22.2692704
  34.7239733  13.4288049  21.6047430   8.8046932  79.1665077  30.6478477
   9.4147956  79.0456152  29.9202561   8.5289383  78.2795382  30.8790922
   4.3457457  55.3095436  41.9452047   3.4385049  55.4187584  41.6602182
   4.7790343  56.1212635  41.6813850  68.6207056   1.9096710  67.1964121
  69.1568136   1.8051901  67.9824829  68.9236546   1.2194891  66.6064119
  36.2557220  16.5802729  25.0715280  36.9662309  16.4265347  25.6942439
  35.5087018  16.1079502  25.4390931  83.9815712  74.3254995   2.1159185
  84.1567516  73.8814688   2.9456073  83.0542183  74.1594982   1.9465537
  45.0651693  47.0439863  18.7358296  45.7689905  47.3065090  18.1425726
  45.4822969  46.4393997  19.3495989  10.0114787  79.8370981  24.6293950
   9.1621137  79.9556398  25.0545526  10.0452530  80.5258942  23.9655852
  57.0966101   8.9657927   2.5580478  57.0157099   8.0403918   2.7889591
  56.2144947   9.3192703   2.6727447  53.6372995  16.1301720  34.7507215
  54.5487595  16.1663747  35.0408196  53.6793518  15.7420599  33.8767457
  62.0747471  18.8693321  68.6348915  62.9563761  19.1525233  68.8773060
  62.1572256  18.5811746  67.7258253  20.2881384  20.3004622  35.5001903
  21.0463643  19.7187388  35.4461241  20.5060530  20.9133363  36.2024236
  84.0750217  79.3052101  15.5465269  85.0195122  79.4345188  15.4602253
  83.6890030  79.9751759  14.9822843  81.9977283  47.2352219  66.2876129
  81.9537449  47.7310038  65.4699993  82.6822281  47.6709270  66.7954016
  35.4765582  25.9185815  24.7430062  35.6363130  24.9814367  24.6313238
  35.9287381  26.3281989  24.0054584  61.0118389  14.8067522   2.4810508
  61.6313457  14.8008537   1.7513883  60.2198935  15.2047992   2.1196468
  48.2780933  12.9039133  25.5373955  47.3360252  12.9253554  25.3692317
  48.5618591  12.0532680  25.2025652  81.5503407  56.7531300  66.6113806
  80.7524681  56.9460440  66.1190224  82.1089172  57.5177574  66.4714432
   8.8120294  78.4933043  14.8030436   8.1095028  78.8284349  15.3601551
   8.6072731  77.5648975  14.6918130  52.0843601  29.6383548  65.4006910
  51.3013411  29.2562437  65.0043249  51.9560242  30.5835915  65.3213739
  38.3614898  57.9978418  14.8284137  38.2016611  57.0819235  14.6008635
  39.1822934  58.2147551  14.3862998  22.5362015  36.5965509  21.4234710
  22.6448655  37.4392390  21.8642640  23.0587411  36.6746211  20.6252933
  15.6604683  37.2112036  12.0201182  16.4628625  37.6497984  12.3030138
  15.9514260  36.5818238  11.3602257  34.0073681  43.0620003  12.7471840
  33.7286067  42.4814367  12.0390379  33.2229710  43.5641956  12.9679906
  36.8540502  30.2471066  20.9021926  36.2104845  30.6627870  21.4760065
  36.5069842  30.3766203  20.0195789  73.6470795  81.3945389  56.3106632
  73.9490986  80.5005360  56.1501312  74.0375710  81.9096661  55.6046915
  50.2747250  32.4269223  15.8100271  49.7089291  33.1965256  15.8718526
  50.0965548  32.0678711  14.9407923  62.4181986  14.5251274  57.7957296
  62.7898359  13.8194048  58.3249474  61.4714003  14.4006419  57.8613997
  75.1885891  19.0354168  24.1854548  74.8846483  19.4674492  23.3872056
  75.7724810  19.6734190  24.5956397  53.3439827  15.3849339  17.2179377
  53.5734320  16.3130927  17.2638226  53.6082697  15.0306213  18.0669653
  53.4448910  24.0411878  18.8692737  54.3726444  24.2759967  18.8501346
  53.3730078  23.4069920  19.5826197  64.9607849   2.3131438  29.4881535
  65.2992058   1.4302605  29.3390846  65.0015640   2.7334854  28.6291528
  39.5486069  63.3842134  25.6850410  38.6183190  63.1689978  25.7519627
  39.6373582  64.2124748  26.1565685  17.9624236  63.6366987  44.6377659
  17.9165459  63.6852884  45.5926323  17.1796930  64.0980625  44.3365860
  77.2348070  76.4685583  20.4900551  77.5787354  75.8061552  19.8907495
  76.3292551  76.5990639  20.2086782  34.0175438  64.4889307  13.9386046
  33.2609773  64.0861464  13.5124564  34.2723417  63.8626575  14.6161675
  64.7940683   9.2273629  57.0199442  65.0860977   9.1385448  56.1127186
  64.1358471   8.5408449  57.1279860  47.0119143  23.4527063  14.5954061
  47.3131037  23.1309247  15.4450965  46.0760593  23.6122084  14.7177243
  57.1940422  20.0371957  12.0392525  56.3583565  19.7442234  11.6758978
  57.5811863  19.2473221  12.4166811   2.9965118  10.6742418   8.3822733
   3.0162925  11.5984440   8.1338960   3.6594146  10.2629340   7.8276408
  80.9994221  13.2431400   4.2747280  81.0214138  13.9593625   4.9093726
  81.7315388  12.6793218   4.5244110  36.9954848  28.1968522  18.2009888
  36.2520742  28.6498070  17.8029871  36.6648054  27.8896880  19.0451062
  74.3682384  68.2439709   3.7229919  75.2271032  68.1795740   4.1406474
  73.7722158  68.4752512   4.4353837   3.8065490  60.5315685  53.6388779
   2.9375961  60.2788019  53.9507437   3.9571139  59.9767065  52.8735685
  74.7642756  58.5832834  42.2763586  74.5989037  58.1472874  41.4404249
  73.9081240  58.9149141  42.5470161  61.5212727  23.3398986  34.7544885
  61.1902142  23.9314914  35.4302502  62.3800421  23.0655193  35.0761414
  72.2477722  59.2956066  39.4281077  73.0391169  59.8307896  39.3683028
  72.1136236  59.1705656  40.3675747  62.5872803   1.7340076  26.2904930
  62.7517176   2.6695424  26.1723137  61.7280912   1.6930166  26.7104340
   6.3473332  80.0817871  17.5271702   7.0192730  80.6026649  17.9669666
   6.5466028  79.1780710  17.7717471  66.0577488   5.0666821   3.1930488
  66.6355324   5.7146257   3.5962495  65.7047558   5.5082786   2.4206379
  36.7006159  41.3222933  18.8294697  36.3493657  42.2112799  18.7789261
  35.9287524  40.7573652  18.7931490  63.2339525   5.7264894  67.6130867
  62.4749660   6.2637579  67.3861313  63.8336277   6.3313997  68.0497885
  43.7378216  21.1511302  51.0026789  43.4017944  20.4896927  50.3978491
  43.4173346  21.9818377  50.6513262  39.4139838  33.0121565   5.1239276
  39.9410963  32.3625016   5.5890447  39.2191458  32.6032472   4.2806825
  68.4774160  14.9114347  20.4037380  68.2454062  15.7024038  19.9171448
  67.7949524  14.8313522  21.0701180  34.8188925  41.2058592   1.4972562
  35.3767586  41.9725227   1.6285741  34.4691682  41.3128138   0.6126750
  14.6116042  38.0369306  44.9232531  15.0964367  38.1393671  44.1043043
  15.0712776  38.6002827  45.5458021  75.9880304  69.4054413  60.6205606
  76.5834475  69.5250463  61.3604259  75.1144218  69.5155668  60.9959412
  42.6704693  16.2799668  18.9779580  42.3333263  16.6322637  18.1542730
  42.7126646  15.3344989  18.8346374  73.4160328  62.7496624  67.2986174
  73.1005764  62.4563408  68.1534195  73.1187820  63.6571026  67.2320986
  21.2113380  25.6679344  10.8194327  20.8336568  26.5458322  10.7657349
  22.0308208  25.7886767  11.2991202  25.2196741   5.8118773  30.4867673
  25.5111432   4.9406826  30.2178884  24.2642760   5.7671142  30.4487872
  68.6754370  57.2520161  58.5046005  69.0347910  58.0919504  58.2189322
  69.2833757  56.9482136  59.1786528  63.5876417  48.2499838  68.1479168
  63.6204720  47.3675251  67.7785635  62.7234364  48.3070374  68.5554981
  41.4974833  23.0342555  40.8490944  41.1861420  22.1291304  40.8424139
  41.8950415  23.1571603  39.9870801  38.8961005  24.3507886  14.9363303
  39.2066717  25.2275968  14.7105253  39.6367049  23.9424491  15.3846562
  48.2259417  42.2776461   9.0262902  48.9690495  41.9881630   9.5556515
  48.0528879  43.1706095   9.3244511  24.1984129  63.5627460  24.8909163
  24.0666676  63.4026957  25.8253980  24.8845530  62.9456758  24.6366262
  60.7414007  21.6738391  24.2518425  60.5192900  22.3213744  23.5828137
  60.5315018  20.8313799  23.8488078  16.3401461  58.4712839  31.3315749
  16.2087810  57.5841904  30.9968472  17.2656655  58.5012102  31.5739560
  51.8353939  19.4318533  27.8997564  51.7510509  19.7855389  27.0143056
  52.6985788  19.7236514  28.1930113  21.5283442   9.3793684  53.3503199
  22.3496604   9.3349171  53.8399076  21.2662745   8.4655327  53.2387161
  24.4655848  43.5460186  57.8753328  25.1776910  43.5610771  57.2358704
  24.8846412  43.2815886  58.6942959  75.5532455  68.8907385  21.8926811
  76.1927557  68.2765532  21.5320754  75.9807301  69.7449970  21.8315911
  36.7334890  68.3911943  44.4351339  36.0805082  67.7912903  44.0746307
  36.3956809  69.2633677  44.2315912  30.3943014  18.2654917  19.5398903
  31.0560632  17.6081359  19.7547984  30.8871174  19.0812171  19.4507003
  58.5652590  22.6409101  32.0898247  58.2844782  23.5498762  31.9841027
  59.5159817  22.6937413  32.1876097  80.6629086  47.4586487  68.8027525
  81.2625599  47.8214884  69.4546652  81.0743046  47.6578951  67.9617548
  18.7417328  38.5101414  42.8163147  19.5056474  38.0106854  43.1047773
  18.8478100  39.3683982  43.2266521  45.2085638  26.7408586  24.5707631
  44.9502230  27.6561308  24.4622779  44.5051241  26.2425160  24.1547608
  73.2921219   0.6946231  35.0387120  73.2737780  -0.1609462  34.6098828
  72.4050236   1.0368693  34.9284506  54.4692707  78.0213833  20.8765173
  55.3334761  78.2187653  21.2376618  53.8945675  77.9778242  21.6407490
  73.1834936  45.4527044  34.8321772  73.3265400  44.5102406  34.7454190
  73.6401176  45.6909990  35.6389856  31.2951565  17.1915030  13.7666380
  31.8944383  16.4805400  13.9938521  31.6041446  17.5024772  12.9157233
  40.3105640  18.0944872  19.6292639  39.5590305  18.2506847  19.0573990
  40.3392076  17.1433270  19.7327280  34.4610810  23.3703423  14.4490063
  34.5728755  24.3097806  14.5945644  33.7086034  23.1319523  14.9904680
  66.1215258  48.0081177  16.0490537  65.3176451  47.4962997  16.1387539
  66.7645693  47.5392866  16.5809643  26.4541268   9.5984900  15.3305495
  27.3706532   9.4552433  15.0945544  26.3914514   9.3020612  16.2385321
  76.6316414  54.4549227  17.7679205  76.5900373  54.4070292  16.8128252
  77.0414877  55.3010559  17.9476786  48.9430189  59.6540213  39.3148994
  48.8235712  58.9135218  38.7202334  48.0798531  59.7886896  39.7061110
  11.9922018  53.0891943  65.3324032  12.4359035  52.3660707  64.8891735
  11.8541503  52.7740383  66.2256289  42.4767542  13.3246088  69.3696976
  41.7149734  13.6401868  68.8835526  43.0926657  13.0429053  68.6932898
  11.2391019  40.7559252  10.1882255  11.9977260  41.3230705  10.3263080
  11.6078627  39.8753476  10.1187217  81.4920235  62.9220009  61.5569305
  81.8651390  62.0587254  61.7351961  81.6696739  63.0726337  60.6285000
  40.6154394  43.9476061  19.0830088  40.1956749  44.0785551  18.2327843
  41.0171652  44.7927427  19.2844844  24.7750759  17.3414993  21.7958617
  25.0242782  17.6870596  22.6530194  25.4302526  17.6962245  21.1949110
  65.7141256  64.0578318  67.9649639  64.7809696  64.1497469  67.7725935
  65.8673286  64.6536684  68.6982727  68.6884785   4.1152504   9.2114335
  69.0280390   3.7157688  10.0122726  69.4049168   4.6662447   8.8962317
  49.8842192  30.5054426  28.1558537  49.1372108  29.9764276  27.8759432
  49.6041346  30.8964229  28.9834499  46.3459492  60.9765387   3.3321938
  46.8390036  61.6188908   2.8217921  45.5051851  61.4009047   3.5032606
  48.3590460  23.9396906  32.6556516  48.6620188  23.2931376  32.0181489
  48.6018085  24.7836137  32.2747421  56.4856243  54.2248440  64.8454523
  56.8703270  53.5651636  64.2683411  57.0163536  54.1858292  65.6410837
  21.9942808  37.8071475  34.5502567  21.7616153  37.7460790  33.6237764
  22.3049378  38.7058020  34.6604609  54.0373468  75.4588699  69.2909145
  53.8601780  76.0256910  70.0416183  54.7207546  74.8626328  69.5970058
  56.0623121  72.8667593  53.2323790  56.1235237  73.7195110  53.6628437
  55.9496832  72.2436428  53.9502048  29.3073201  12.8363550  43.4001780
  28.5488105  12.8796804  42.8179264  29.2214131  11.9921148  43.8430166
  45.3817272  22.6482415  19.9523652  45.6487894  21.7608380  20.1920009
  44.9194288  22.5429201  19.1208494  76.2209702  15.1124990  12.2365594
  75.3672028  14.7061431  12.0875776  76.7227554  14.9120963  11.4464462
  40.6611252  16.5068412   7.8375340  41.2441730  16.4403963   8.5937572
  39.8317623  16.8170536   8.2010639  55.3108692   9.1138017  20.8760667
  55.5944729   8.9904761  19.9702024  56.1229992   9.2439765  21.3656878
  30.9209156  31.5355921  15.8126915  30.0387096  31.8865561  15.9342074
  30.9931946  30.8383608  16.4645159  72.8648138  44.5573759  21.5567040
  73.7902355  44.4022083  21.7457891  72.8249454  45.4769516  21.2939811
  31.9573903  65.8613110  67.1230745  32.8255987  66.2246990  66.9487286
  31.5713716  65.7367277  66.2560701  46.0149717  30.8751535   6.5469164
  46.7878532  30.3335929   6.7068970  45.4889727  30.7824588   7.3412478
  60.5384207  69.6300888  64.0533686  59.6032667  69.4263268  64.0391731
  60.9671021  68.8031912  63.8326788  44.7084379  74.9432564   9.6898001
  45.1769733  75.3407812  10.4237497  44.4420528  75.6845570   9.1459793
  70.1963758  28.0671430  25.9133840  70.0251436  27.6768494  25.0563049
  70.6179285  28.9034963  25.7158017  36.1628914  46.0494709  27.4339628
  36.6492414  46.7342091  27.8931260  36.8141627  45.3706360  27.2571588
  42.6459980  41.8017292  15.4808462  42.8640223  42.5536919  16.0315287
  43.3824587  41.7277956  14.8738980  80.7874870   7.3564291   6.7005092
  81.6050720   7.2292352   7.1817625  80.9833145   7.0576519   5.8124697
  35.2772546  33.8106418  13.7403393  35.3583884  34.6776438  13.3429003
  34.7087908  33.9468718  14.4983137  79.2506456   2.6525623   7.9651219
  79.6102571   2.2218759   7.1896070  79.2797422   1.9813953   8.6469722
  69.6530294  78.9416122  70.5156231  69.7055435  79.8360109  70.1786852
  70.4806614  78.5381222  70.2539778  41.4481354  60.2047873  11.6313529
  41.8892670  60.1450300  10.7839656  40.8327103  60.9309244  11.5303195
  52.5987005  71.6405869  49.5778322  52.6581144  71.7278624  48.6264753
  52.6358223  70.6970358  49.7345734  41.5920877  74.7168493  39.1809583
  41.1347723  73.8914061  39.0205431  42.4774551  74.5686483  38.8487029
   6.1195570  55.3379774  49.5421505   6.3933867  54.7112036  48.8725185
   5.1816851  55.4554367  49.3910551  18.5085201  49.8089695  49.4518423
  18.2583714  50.6647778  49.1036320  17.8522146  49.2066908  49.1014767
  43.2338190  34.8936248  25.2020717  43.0441284  33.9780259  24.9973011
  44.0999126  34.8735452  25.6091380  83.9858818  65.6180716  41.1453485
  84.8406887  65.2475166  41.3649368  83.5695839  64.9521542  40.5980873
  83.4134293  47.0494890  62.0360899  82.8339672  46.9274473  61.2840509
  83.2427025  46.2917423  62.5954628  50.7075930  13.5105181  32.8680444
  50.1355505  12.9807568  33.4233379  50.5479956  14.4112051  33.1500411
  23.3246779  43.5480881  34.0910006  22.8846931  43.8273573  33.2880998
  23.5236430  44.3635130  34.5511389  21.7158246   1.4066845  46.4307261
  22.0790434   0.5797242  46.1138010  22.4823785   1.9416426  46.6367579
  59.6860933  39.2263937  13.8985169  59.2159367  39.5448232  13.1279421
  59.1619444  38.4889770  14.2111135  25.9090209  45.6854200  49.7257566
  25.3534675  46.3542366  49.3254089  25.7742548  44.9070835  49.1851425
  37.2415471  73.8822937  66.5692425  37.0688891  74.3745995  67.3717785
  36.9325042  74.4539309  65.8664227  50.0868702  56.3611174  30.1299000
  49.5190573  57.1276236  30.0506496  50.9538746  56.6781139  29.8768330
  56.9504166  19.9266422  60.5048847  56.3590956  20.5174017  60.9713316
  57.8200006  20.1435471  60.8410501  26.0411763  23.6710715  32.0140839
  25.5533409  24.4232821  31.6787791  26.9566536  23.9496160  31.9907618
   6.8984818  70.8624411  48.6601877   7.2696495  69.9801540  48.6539841
   5.9835958  70.7391882  48.4071589  58.9697075  38.8227987  11.0892999
  59.2342186  38.0621815  10.5718780  58.5357571  39.4004393  10.4614067
   4.1400000  59.4994259  25.5867505   4.1196433  60.4558277  25.6201577
   3.7383801  59.2223978  26.4102745  46.5747452   0.2346662  36.8162704
  46.2100077   1.1006128  36.6336894  45.8111334  -0.3396749  36.8733883
  64.4474411  26.8212485  32.7509022  63.9618158  27.6294255  32.9159760
  65.1118469  26.7961574  33.4395003  30.3019428  20.3453374  16.8872392
  30.6892085  20.5974269  16.0489631  29.5463037  19.8077929  16.6499889
  51.8906069  41.6386414  15.4295290  51.7679548  42.3116302  14.7599995
  51.1218977  41.0744715  15.3456843   4.2695281  78.5652018   8.2160425
   3.6489365  79.0668631   7.6874262   3.7566173  78.2638979   8.9659560
  85.3863335  11.9442630  11.8326187  84.4524860  11.7619562  11.9371951
  85.8043957  11.4741659  12.5540495  67.7393579  40.0427246   9.2462319
  67.7295160  40.9841299   9.4191164  67.2155666  39.9396276   8.4517223
  60.3457212  12.1145773   2.8647050  61.1820126  11.6608226   2.7600396
  60.4893160  12.9752517   2.4711941  28.0112338   5.4708248   2.6687801
  28.3793926   5.1980323   1.8283790  28.1474757   6.4179480   2.6938304
  10.6810737  75.1478148  30.0622845  10.9400153  74.7718143  30.9035969
  10.6646192  74.4025898  29.4617867  20.1005006  51.6469431  33.6563110
  20.9124565  51.9659138  33.2623339  19.9623787  52.2154999  34.4138741
  28.8159347  22.8003001  26.7077756  29.2640901  21.9583511  26.7884731
  29.4275045  23.3513069  26.2193012   6.4548159  58.7043953  14.5358205
   5.8386338  58.8926744  15.2437055   7.1472991  58.1905842  14.9513912
   1.7589059  28.9519620  15.6168485   2.4253297  29.3885541  15.0862837
   2.2560486  28.4791303  16.2843144  49.5053816  15.5646479   7.9679090
  49.3675804  16.2393343   8.6327708  49.0178299  15.8765578   7.2055167
  71.1624193  42.5664282  70.3998852  71.5780735  43.1414080  69.7573423
  70.2578259  42.4842024  70.0979280  22.1609306  77.8751230  29.6969604
  23.0985355  77.9914236  29.8505926  21.8272853  78.7630796  29.5687199
  46.7868662  14.2394066  20.6863666  46.8557787  13.9461350  21.5949225
  47.5886774  14.7397351  20.5347133   9.2069429  22.2195697  68.2236433
   9.9384540  21.9142962  68.7602377   8.5721350  22.5586796  68.8547182
  33.0614877  49.9937248  42.2851324  33.7109494  49.3055582  42.4295568
  32.2914600  49.5308495  41.9549274  82.0788670  39.7612524  51.1031818
  82.0578289  38.9613914  51.6285515  81.9193268  40.4650879  51.7319822
  24.3694925  33.0762029  33.7787199  23.8675261  32.3648906  34.1765857
  24.9800372  33.3504152  34.4630265  31.7285252  55.2270031   1.4074795
  32.2872543  54.4679737   1.5745986  30.8673573  54.8537636   1.2195651
  30.6736016  61.3849735  10.0836945  29.7299910  61.2488651  10.1691699
  30.7566929  62.0902967   9.4419420  39.6740150  38.1424069  10.5918312
  39.1736913  38.9156294  10.8526647  40.5797911  38.3566475  10.8152103
   3.5327676  74.9784184  50.8842850   4.2774743  75.2369070  51.4272642
   3.3126849  74.0963364  51.1838198  45.8269358  21.0842872  40.8179522
  46.3107586  20.3484392  40.4428816  45.3701115  21.4751339  40.0731134
  40.4209423  64.6264219  65.9937668  40.3769398  64.9291897  66.9007540
  41.0140800  65.2426720  65.5640507  33.6037636  46.7377806  28.6094737
  33.0597472  46.2643147  27.9801011  34.4851851  46.3902378  28.4733081
  50.5728149  34.8754263   9.2203009  50.3826284  35.4900908   9.9289960
  51.3225365  34.3707705   9.5356965  53.9623690  35.3011322  20.6329799
  54.5547676  35.3293109  19.8816466  54.1571808  34.4671321  21.0604429
  81.2266064  28.0267501   1.9944368  80.7586002  28.8460279   1.8332353
  81.5916729  27.7878189   1.1424540  37.4648738  42.6074266   3.2648134
  36.6980696  42.6663065   3.8347045  38.2113028  42.6898432   3.8583487
  33.6616993   9.3618107   7.0925868  33.6421442   8.4474361   6.8101531
  32.8188348   9.7175342   6.8110323  73.1133842  45.9015799  25.1164007
  73.0055618  46.0487700  26.0560489  73.4440374  46.7344427  24.7798944
  86.3469887  28.7777042  11.7915022  85.9298992  29.6012068  12.0447028
  85.7055378  28.3484960  11.2253332  18.0629587  28.7206244  41.1250877
  18.5541070  29.5403528  41.0698557  18.6475718  28.1219912  41.5899515
  49.8545885  19.7327161   6.2667793  49.7276640  20.6092286   5.9036714
  49.0549564  19.2598212   6.0361433  31.7887354  76.1354589  40.1344585
  31.5470171  77.0614290  40.1541758  31.8292904  75.8788395  41.0557270
  68.8605738  37.7079535   3.1604585  69.5999575  37.4039316   3.6868769
  69.2390060  37.8947997   2.3013261  34.6066809   4.7181535  14.3315709
  35.3355289   4.1135871  14.1918766  34.7823954   5.1117176  15.1862431
  70.1599789  16.6948831   6.9424373  70.1311827  17.6514280   6.9630420
  70.1719618  16.4756370   6.0107619  50.2391577  41.4691544  10.3739476
  50.1356125  40.5200195  10.4422021  51.1781740  41.6163969  10.4870915
   0.0487400  15.2972746   6.0194415  -0.5219854  15.7378173   5.3898168
   0.8918238  15.7416785   5.9302920  60.5999231  42.5164843  13.5252345
  60.7079124  42.0437145  12.6999712  59.7314405  42.2606897  13.8359344
  69.2322016  66.7847538  63.9708233  69.8602915  66.2410498  64.4463491
  69.3088245  66.4988041  63.0605507  32.3183632  45.2792072  18.6467230
  31.6718483  44.9104738  19.2486238  32.8166604  44.5226574  18.3375883
  22.0965099  25.1892090  26.1027527  22.4485159  24.6210027  25.4175758
  22.2293639  24.6976280  26.9132638  16.4544344  47.8507471  27.7993798
  15.8169544  48.2811832  27.2296643  16.3847697  46.9220829  27.5781107
  30.6384540   9.8438281   1.6403373  30.6463575  10.7576644   1.3556045
  29.7865248   9.5120025   1.3568911  28.1219959  80.2394104  30.2202177
  28.0114675  79.3494654  30.5548954  27.9630613  80.1629639  29.2794061
  70.9086704  23.8481021  29.6899462  70.9874344  24.5860577  29.0854216
  71.7057657  23.8854170  30.2185988  29.1961598  13.6040831  25.8662343
  29.8224711  12.9135680  26.0833883  28.7561512  13.7973320  26.6940498
  12.8264689   8.9671159  67.1478701  12.9074514   9.8640293  66.8234921
  13.5891116   8.5130405  66.7895079  46.6703272  21.3690495  27.0859313
  45.8882523  21.9185591  27.0346522  46.8805885  21.3381886  28.0192423
  53.7664652  18.1886542  20.1679564  53.0852938  18.6312723  20.6742430
  54.3446016  17.8057098  20.8277583  41.2875938  23.3474922  16.1664104
  41.4903831  24.2376494  15.8787823  42.1425295  22.9405618  16.3068724
  82.3080254  74.5325279  56.7886496  83.1288624  74.8632622  57.1534443
  81.7947292  75.3187037  56.6024160  56.0957050  30.7525659   3.8967255
  56.8773222  31.3020372   3.8385308  55.3652287  31.3691044   3.8465405
  32.9052496  25.9172821  32.5107098  31.9552922  26.0272980  32.4693584
  33.1075263  25.9316111  33.4461832  22.7574658  39.2928481  25.8793163
  22.3949242  38.6154270  26.4501882  23.0124998  39.9970746  26.4753461
   0.6380799   9.3680167  65.1654148   0.1329060  10.0731504  65.5701590
   1.5341046   9.5094192  65.4709911  23.3441782  13.2290399  27.6225185
  23.9843535  13.8643658  27.9430938  23.7171912  12.3774278  27.8502297
  60.5058479  45.5363703  45.4137516  60.5451345  46.3487673  44.9090767
  59.7327042  45.6365633  45.9691286  69.6056700  45.1150990  19.6129906
  68.8494396  45.4375029  20.1033020  69.7674990  44.2415857  19.9693811
  84.0989399  55.9735441  51.4748430  84.9115753  55.8786583  50.9779978
  84.3821907  56.2468433  52.3473692  63.4503508  11.5705705  23.3707023
  64.1373158  12.1149611  23.7553453  63.0050421  12.1489000  22.7514553
  61.1055517  71.9936657  68.8438368  61.6676807  71.6623926  68.1434774
  60.2210951  71.7373943  68.5825062  19.7980607   6.7972249  33.6778951
  20.3325033   7.5568306  33.9094162  19.3835378   6.5363944  34.5003128
  76.9960737  23.6768341  16.1054611  77.4136496  23.2027340  16.8245494
  77.5694418  23.5256982  15.3540373  22.7464390  64.9847507  40.6485128
  22.6702189  64.3509245  39.9352837  23.3468318  64.5741081  41.2707138
  49.6683455  31.7237091  13.3886313  49.8021793  31.5074325  12.4658406
  48.7530422  31.9991040  13.4397793  65.3473759  26.2491584   7.6237321
  65.3143978  25.7133198   8.4162116  65.3605890  25.6154251   6.9064873
  11.3355470  25.1335001   9.8621863  11.7222440  25.2044296  10.7349217
  10.5879891  25.7309842   9.8821664  50.0719375   8.4205724  70.8503901
  50.3972501   9.2695142  70.5508952  50.0142449   7.8918602  70.0545450
   0.2666167  65.7212162  67.8704214   0.9480653  66.1849499  67.3837900
  -0.5545944  66.0472059  67.5022173  68.1576490  11.8505001  12.2432852
  67.6878881  11.3114512  11.6069007  67.4856520  12.1246195  12.8673935
  69.3397093  57.1729612  14.3360925  68.5924482  56.9435644  14.8885524
  70.1010609  57.0650911  14.9061263  81.1067009  59.6490574  28.6500573
  80.4980278  60.3531456  28.8736916  81.2319374  59.7319746  27.7047133
  29.2157221  76.9140911  25.8361673  28.4769869  76.3610315  26.0903883
  29.8388195  76.8279839  26.5576720  41.1821318  50.2468967  17.8569448
  41.0727978  49.3071556  17.7114546  40.6522465  50.4324818  18.6321950
  22.7730131  49.8339701  23.5317445  21.9759393  50.3523207  23.6422873
  23.4676933  50.4832888  23.4220457  10.2334106  72.0695257  44.8174191
  10.8696210  71.3551807  44.7830629   9.6509951  71.8369770  45.5405664
  74.8286819  50.5138540   9.9133551  74.4858265  50.6287622   9.0270841
  74.1986465  49.9335003  10.3405261  73.8290167  66.3771868  25.6476760
  73.6069345  65.9143209  26.4555550  73.3403301  67.1985674  25.7001567
  60.2287579  24.1678119   9.2878425  60.8131933  24.4485617   8.5836786
  59.5726395  23.6239386   8.8520199  59.5693922  51.4541674   9.2115998
  59.2579556  50.8011341   9.8383290  60.4304647  51.1351967   8.9413255
   7.4325490  49.8245955  11.2821305   6.6189051  49.4478750  10.9470260
   7.8468478  50.2204132  10.5153728  51.7119598  25.1776409   4.3609211
  52.0078945  25.0065517   5.2550036  50.8834696  25.6449103   4.4681397
  25.3052568  25.0206423  52.7410984  26.1621261  25.0627446  53.1656408
  24.8642635  24.2839408  53.1642151  69.9098444   6.1847401  34.8721647
  70.4490566   5.4450035  35.1519394  70.5338526   6.8973619  34.7342682
  32.2565436  65.8623791   4.1413465  33.1933713  65.7133007   4.2692629
  31.8608141  65.6354761   4.9828598  77.6336861  56.6093206  15.9862828
  78.5768270  56.7696905  15.9546161  77.3483419  56.6779566  15.0751853
  31.6348076  75.5139828  56.2638330  31.3402247  76.1189222  56.9446468
  32.1235538  76.0630226  55.6507158  64.9071217  54.2012262   8.9358777
  64.9951887  54.1035652   7.9877549  65.7747650  54.4789076   9.2296743
  83.6368465  29.8471951   7.4703419  84.2242813  30.6013322   7.4210280
  83.1991959  29.8284483   6.6192597  42.3813057  32.9918027  19.2228663
  42.5863314  33.9267635  19.2162859  41.4306164  32.9543304  19.1179299
  80.4846668  48.1404781  52.1038151  81.3308144  48.5403633  51.9029045
  80.0947094  48.7207842  52.7575827  74.0629244  34.3616724  20.9624219
  74.5990515  34.1141677  21.7157745  73.2026339  34.5562720  21.3342643
  59.1717625   5.7710898  25.7922363  59.8496819   5.4908800  25.1773095
  58.4347820   5.1851892  25.6195688  21.9829941  26.8405724  58.1668472
  22.3907661  27.7062488  58.1433153  22.4578118  26.3707137  58.8524246
  40.4341555  40.5762959  35.8050656  39.5802498  40.8172941  35.4459095
  41.0427523  41.2063360  35.4191947  66.5803623  25.5843186  44.9910927
  67.0355654  24.8559189  44.5686483  66.6518354  25.4005027  45.9277534
  77.7101564  63.7718058  17.1572685  77.2038078  62.9616451  17.0982409
  77.6649714  64.1471004  16.2778676  61.8761826  51.4855433  30.0732446
  62.2834206  50.6382370  29.8930907  62.3608637  52.1050453  29.5277786
  50.0766802  51.7496538  10.3399622  50.5918837  51.9317865   9.5540726
  50.4794598  52.2887564  11.0206723  57.5463581  72.7865219  28.5970235
  57.4602032  72.0366335  29.1856480  56.7822552  72.7297068  28.0233121
  10.0968337  10.4211485  70.0281048   9.5549881  11.2082064  69.9717712
   9.7229522   9.9245632  70.7560110  73.4607649  28.9620996  18.4204769
  73.8185978  29.7923851  18.1061304  72.5276613  29.0093279  18.2123518
  34.4148731   8.5747975  65.4544449  33.9447689   9.4083875  65.4735041
  34.8774099   8.5797787  64.6164322  50.0481176  67.0989847  40.7195568
  49.3082047  67.0650196  41.3258600  49.9291372  66.3363218  40.1534986
  72.8447485  19.2908561  25.7884121  73.7183142  19.1561675  25.4210186
  72.9480219  19.1128826  26.7232323  44.1629887  30.8846712   4.2089120
  44.6975660  30.8360767   5.0014383  43.9368439  29.9747133   4.0163797
  21.2733698  72.8916740  63.0745983  20.7880902  72.9567242  63.8970947
  21.4837098  73.7976456  62.8483105  82.3855495  60.7960844  15.3442347
  83.0447292  61.4894772  15.3745449  82.5054550  60.3889608  14.4862688
  20.9736586   1.1415033  66.5753365  20.6912446   1.8081540  65.9491968
  21.2811160   1.6393487  67.3328686  52.9502255   0.6440353  35.0795650
  53.8596016   0.6408501  34.7808099  52.8249770  -0.2186680  35.4749060
  55.3968906  21.5663457  26.0593390  56.2794685  21.1986136  26.1047244
  55.3943157  22.2644401  26.7142391  22.0283294  75.5791426  62.6671934
  22.2696900  75.4989624  61.7443991  21.3473320  76.2517023  62.6790810
   3.5604584  80.9904480  36.0850120   3.6461598  80.6560802  35.1922154
   4.4323859  81.3205051  36.3018870  46.1522055   4.0691206  62.9588985
  45.5407667   4.2356205  62.2415066  46.4286900   4.9397510  63.2448864
  20.3635859  23.2576084  68.1253290  19.7012544  23.8047409  67.7031994
  20.0298905  23.1184340  69.0116215  36.9482183  35.4301453  63.0386543
  37.3063374  36.3147044  63.1130648  36.0303187  35.5210638  63.2944345
  63.5904694  34.0359831  21.9596076  62.8995466  34.4799662  21.4679384
  63.5004759  34.3685317  22.8526616  27.2008324  68.4981871  23.8650537
  26.9150543  68.1025362  24.6884751  27.8085208  69.1888857  24.1294122
  65.8821440  53.2016706  14.2352545  65.5729961  52.9282856  13.3715868
  65.7609177  54.1511250  14.2435563  40.1036406   3.5047486  66.7379904
  39.9246478   3.0474296  65.9163761  40.4485989   2.8269085  67.3191690
  49.1194201  60.2238417  14.3910229  49.6615171  60.7990789  13.8511479
  49.1769743  60.5966949  15.2707398  11.6783118  78.7787104  63.3625889
  11.8578446  78.3452797  64.1969395  12.3143399  79.4928837  63.3219576
  67.6082039  24.0884304   9.8401850  68.4496260  23.7209511  10.1107395
  67.2725487  23.4676385   9.1935116  45.9957552  54.1971207  12.9482150
  45.3161335  54.7759819  13.2935607  45.5214977  53.4189177  12.6554430
   5.0878835  55.5372286   2.3631115   5.2737534  56.3226414   1.8485135
   5.5509740  55.6769228   3.1891039  82.6808357  76.4998388  66.0939884
  82.7698708  77.3359823  66.5513325  82.7085972  76.7305851  65.1654291
  61.7211580  37.8160286  19.5444167  61.5251017  36.9206977  19.8204207
  62.3097277  38.1516433  20.2205658  52.1485758  43.4122276   5.3291589
  52.7170849  44.1814280   5.3660941  51.4089394  43.6868620   4.7871763
  62.2450733  47.6545000  12.7256846  61.6096401  46.9424629  12.7995944
  63.0946589  47.2148228  12.6921940  80.9724426  28.2943869   5.8312827
  81.8151283  28.4232092   5.3959399  80.3938198  28.9425755   5.4296851
  30.8597350  21.8912125  19.1261399  30.6345868  21.5013218  18.2814360
  30.6459498  22.8188825  19.0263462  44.4616890  45.4766560   2.9987139
  44.3304873  44.5877171   3.3285579  45.1215839  45.8532000   3.5809380
   3.8872218  42.4791574   7.4436724   4.3679991  43.2904673   7.6075643
   3.0167070  42.6387787   7.8083038  76.4802694  60.0357676  62.0931578
  76.1255360  59.2067337  62.4142504  77.2207022  60.2194071  62.6713181
  53.8368082  47.6281548  20.3102899  54.2706633  47.4951649  21.1530924
  53.1754637  46.9373512  20.2697110  70.1855755  41.8981314   3.8520908
  69.8736143  42.7763605   3.6338645  70.9681177  41.7812014   3.3134070
  10.9285593   1.0552292   3.9360720  10.2722180   1.4296246   4.5236742
  10.8623934   1.5795052   3.1379563  15.9602916  47.7671528  16.4792514
  16.4199936  48.5853386  16.6675985  15.1552665  47.8206825  16.9943249
  73.1959248  80.9184074  16.5989363  73.8937902  81.3011551  17.1306527
  72.4621439  81.5257168  16.6936827  60.3480148  68.7925863   1.2577076
  61.0937071  68.7964773   0.6575762  59.7079849  68.2157707   0.8407174
   1.1485043  66.0504961   7.1435493   1.1023816  66.6598415   7.8803039
   1.2981880  66.6084242   6.3803029  14.6366048  19.8850393  19.8763549
  14.9068058  20.7109571  20.2777052  14.7052670  19.2420423  20.5820966
  12.1508145  51.3134098  14.0560544  12.7532589  50.7703924  13.5476983
  12.2870922  51.0380983  14.9626219  73.4066582  55.3732538  35.8802748
  73.1938171  55.9889650  36.5815806  73.4321642  55.9111166  35.0888920
   4.7911632  38.7743115  13.9225829   3.9838365  39.2507243  13.7289667
   4.9889654  38.3000731  13.1149912  59.5481920  44.6148682  16.5244782
  58.9537573  44.6736050  17.2724271  59.3253326  45.3709793  15.9814620
  60.6779385   8.3260477   8.5162604  60.2286673   8.9405566   9.0965760
  61.5045595   8.7589037   8.3027923  20.1244855  15.5607700  68.4263325
  20.5801892  16.3756108  68.2151413  19.5245576  15.7981849  69.1334057
  81.3640881  49.4226313  46.8984032  80.5895519  48.8733816  47.0194578
  81.3408661  50.0348759  47.6338291  58.5997915  52.5545454  13.8551843
  59.1514444  52.1617842  13.1786895  58.4302425  53.4424353  13.5403252
  55.1000929  35.8193064  25.3666806  55.7741880  35.4141927  25.9123111
  54.4156551  36.0777068  25.9839392  54.9869299  71.5788841   5.0701237
  55.1465416  72.0603991   4.2583963  55.8178806  71.6245699   5.5430520
  37.5549722  75.7070589  68.6873436  37.8932285  75.5068493  69.5601130
  36.8531156  76.3393545  68.8417244  60.9873819  47.8750610  16.7176318
  60.3853559  47.7163363  17.4446833  60.4485559  48.2966185  16.0481644
  52.5443602  69.6735001   9.7102600  52.5456429  69.5909739  10.6638956
  52.8878117  70.5516148   9.5453829  68.5209799  46.2359333  12.9942632
  68.2021284  45.3550482  13.1907403  68.8074780  46.1890459  12.0821488
  54.3743610  45.5054188  22.3008633  53.7773943  44.7657681  22.4139166
  54.9462461  45.4710150  23.0676699  66.6620016   8.7008089  14.0807450
  66.4380026   9.6083355  14.2867851  66.3363981   8.5700113  13.1901789
  65.1849318  57.7865219  20.3755713  66.1228848  57.9759455  20.3998566
  64.7667360  58.6186171  20.5968499  83.9394379  11.0390842  69.0272856
  83.5157490  11.0272491  69.8855352  84.6563244  10.4096353  69.1053772
  69.0288877  49.9201870  28.1462741  68.5427713  50.6449604  27.7530432
  69.5384979  50.3261375  28.8475156  45.1528263  54.7711229  26.0884500
  45.4893732  55.2726078  25.3458309  45.8831930  54.7387600  26.7063069
  46.0559893   9.2921978  69.8041534  46.2420177  10.1031184  69.3308306
  46.4909506   9.4031519  70.6495667  51.3002014  16.5993738  40.5679941
  51.6203022  16.5458751  41.4684963  51.2682819  17.5374842  40.3804827
  60.9541321  57.3388481   3.4485954  61.8915844  57.4098206   3.6285287
  60.6876898  58.2273006   3.2121718  25.0349736  20.6586504  16.9536328
  24.4727683  20.4218149  16.2160254  25.2881908  19.8205531  17.3405480
  74.2171192  73.0123472  56.0932350  73.8756132  72.6144218  56.8940210
  74.3825483  72.2719431  55.5095673  35.5816841  38.0158734   6.6605592
  36.1867642  38.7574911   6.6711777  36.1117506  37.2785974   6.3577563
  38.1496739  26.7111397  32.1421432  37.2238231  26.9428229  32.0689487
  38.5895848  27.2799826  31.5103769  77.5832319  15.8618987  32.2125745
  77.9553509  15.3071344  31.5270138  76.6477442  15.8948398  32.0125508
  41.1713505  34.7818089  12.2564399  41.4235878  35.3270626  11.5112495
  40.2163267  34.8403287  12.2836494  63.1784773  61.7287159   5.9579551
  64.0423965  61.8663168   6.3464630  62.8595161  60.9221125   6.3627946
  66.7976761  53.3302498  21.4967966  66.9127226  52.5257778  20.9910107
  65.9351444  53.2375240  21.9013619  49.7327662  19.7579122  55.1765013
  49.2522717  18.9387941  55.0565004  49.0543985  20.4100132  55.3520489
  13.0233133  71.8287659  68.8934851  13.7405944  72.0617294  69.4829512
  13.3625245  71.0941362  68.3821297  30.0968242  55.8927011  18.4254670
  31.0331154  55.9531641  18.2359016  29.7153425  55.5184937  17.6313198
   1.7987201  52.4758959  36.0050225   1.3529553  52.0539618  36.7395258
   2.6952016  52.6085567  36.3131690  42.6530457  80.6648254  62.6990175
  42.3869038  81.4496708  63.1779957  41.8589211  80.3790188  62.2474480
  76.7077589  47.3190355   1.1726456  77.2602701  48.0281925   0.8439265
  76.6287518  47.4921417   2.1107417  59.2015934  20.4032731  38.9533544
  59.0206289  21.2711358  38.5923862  58.6405373  20.3437281  39.7265935
  52.4738121  80.9418678  15.9256279  53.2315111  80.7222176  16.4677322
  52.8475285  81.1826038  15.0779152  86.1814308  17.5869107  14.6872163
  85.5913925  18.2470989  15.0508642  85.6001949  16.9437087  14.2813969
  40.3462553  62.6005936   2.3600467  39.5824981  62.0289516   2.2817613
  40.0945759  63.2476711   3.0189735  79.9605513  68.7946129  48.0984783
  80.5583286  68.2585669  48.6195850  80.1633835  69.6950388  48.3520937
  74.2068481  37.8226089  13.6606896  74.2121696  38.7746453  13.5615289
  73.5563564  37.5194645  13.0272877  62.2779894  32.0621705  23.6231828
  62.7879906  32.1429181  22.8171968  62.8941822  32.2875834  24.3201208
  43.4758186  38.2222605  19.3670845  43.2737684  38.2475662  18.4317946
  43.4889698  37.2900891  19.5841455  59.6325111  77.3452139  67.6034021
  60.5422258  77.1153593  67.4141407  59.6079922  78.2998323  67.5375271
  76.0799646  60.8321953  54.2857647  75.7355452  61.3011932  55.0458002
  75.9112358  61.4168501  53.5468864  63.8744497  43.3429241  11.8601263
  64.1041422  43.3605480  12.7891922  64.4912720  42.7219439  11.4726412
  58.5653925  64.1169643  22.2454715  58.0795097  63.3075809  22.0872021
  58.1899929  64.7460461  21.6293859  60.4845142  37.1062088   7.5216746
  61.1188650  37.3087716   8.2092786  59.6562862  37.4571562   7.8489494
  47.5214624  42.7319431  24.7220707  47.5546932  43.5834408  24.2860866
  48.3341789  42.6889610  25.2259231  77.8802252  75.2608871  18.2742488
  77.9619169  74.4366980  17.7943802  77.6699066  75.9094000  17.6023650
  21.6890502  17.7783573  39.0337300  21.1736345  17.0065784  39.2681170
  22.1851993  17.5092840  38.2606387  56.9886065  33.1454730  24.6242714
  57.8959417  33.0608678  24.9172163  56.6379261  33.8730597  25.1379585
  80.4112530  58.0105639  59.3376255  79.8495483  58.7791538  59.4375563
  80.2151680  57.4695253  60.1025152  63.3423519  40.2529097   5.7994920
  64.0859461  40.7751656   5.4985756  62.5767803  40.7961702   5.6124282
  14.2960978  77.1159410  61.3552904  14.1050553  76.3629961  61.9145918
  13.4661281  77.3062325  60.9180593  52.2042322  38.0668378  12.6000440
  52.5592947  38.8690233  12.2170806  51.4828730  38.3648682  13.1541657
  57.0475578  34.7942257  27.0530224  57.6431465  35.3737044  27.5281096
  56.8273592  34.1082358  27.6832294  75.8703947  64.3164587  67.9902029
  75.8033133  63.4736490  67.5414228  74.9628639  64.5767212  68.1479359
  45.4907703  26.4177489   2.8964272  46.3256407  26.8855309   2.9163992
  45.7350016  25.4923296   2.8829941  45.6114864  48.4230518  24.7462344
  45.9130144  49.3302107  24.6974921  45.2923536  48.2290506  23.8649011
  39.2237639  70.1681614  42.0217133  40.1321697  70.2810287  41.7419147
  39.2036843  69.3007660  42.4260044   6.1291856  51.8497086  66.8472385
   5.7429594  50.9740400  66.8311119   6.7758179  51.8133354  67.5520611
   5.8829343  72.5927544  43.0160141   6.1845320  71.6843748  43.0270290
   6.5438390  73.0706453  43.5170650  41.8246841  38.8749146  23.0695105
  42.5864029  39.4432187  23.1837487  41.5057898  39.0757990  22.1896338
  79.1697264  35.6012893   4.4381583  78.2934523  35.3324413   4.1622967
  79.4643450  34.8989058   5.0178885  47.4653196   8.7890124  24.9511194
  47.5886154   8.3897382  25.8122873  46.6238594   8.4484625  24.6474791
  60.4090500  44.2981339   6.5574652  60.0842762  44.8547220   5.8496785
  60.7083035  44.9128056   7.2274297  32.6956964  35.8598661  69.4138432
  32.8692436  36.7749643  69.1931438  31.7496181  35.7626534  69.3056059
   4.1241083   3.4383744  37.8245354   3.5007167   3.1507456  37.1575403
   4.6125442   4.1472721  37.4060559  27.1830845   4.2640910  66.9040823
  27.2445846   5.0182641  67.4903154  26.3324499   3.8736311  67.1045589
  53.3361244  55.4405355  26.4643240  54.0775776  55.5175734  27.0647740
  52.6097536  55.1513100  27.0165610  73.1905985  47.1604681  20.7267737
  73.9182091  47.5598574  20.2500129  72.4241877  47.6710415  20.4657054
  79.2904091   7.6791543  16.4461935  78.9883232   6.7710078  16.4305735
  78.4897852   8.1991261  16.3764858  36.2921166  31.3563371  12.1264517
  36.1527872  32.2848988  12.3124397  35.7445812  31.1805463  11.3612497
  62.0590591  57.6064682  57.7883053  61.9907951  56.7262173  57.4185371
  62.7771950  57.5465679  58.4183264  67.1438789  69.9345350   9.2402399
  67.1305609  70.8372355   9.5583367  66.2683821  69.7947979   8.8794005
   1.3696097  28.9343381  69.6393061   2.0672338  28.9955044  68.9867640
   1.7050922  29.4173074  70.3945732  49.4430304  40.9716988   3.1181908
  48.8284636  41.3325548   2.4791908  48.9228344  40.8592844   3.9137959
  51.5429115  42.3733664  18.1533134  51.7769384  41.6786957  18.7688541
  51.8126345  42.0370102  17.2987115  12.9581451   6.7605418  34.6961093
  13.7580049   7.1598554  34.3540478  12.2590435   7.3566133  34.4274330
  45.0419378  62.4165773  32.5182581  45.6083107  62.5282955  31.7547297
  45.2314425  61.5314817  32.8295898  59.3181992  42.0721674  21.8610311
  58.9269066  41.8761778  22.7123308  60.1702166  42.4543524  22.0713329
  50.1462889  31.4711356  10.4474247  50.0955486  30.6354213   9.9834824
  49.3157816  31.9047570  10.2513194  45.4325438  45.6538057  21.0944819
  44.4823408  45.5383444  21.0983968  45.6786394  45.6454754  22.0194674
  35.2884507   3.8072115  69.6247530  35.8937097   4.0066108  68.9105177
  34.4830251   4.2691991  69.3921852  29.9514174  14.9485314  36.9808936
  29.0030742  15.0064170  37.0971823  30.1439095  14.0130687  37.0448494
  42.1851349  11.3785839  48.5029793  42.5680780  12.2556055  48.5233831
  41.2419653  11.5304041  48.4428167  62.8207874  57.6435900  64.4733381
  62.0208168  57.8516483  64.9560261  63.4919071  58.1977415  64.8717737
  13.9778745  66.4072371   6.9187170  13.0305970  66.5381670   6.8768102
  14.2739797  67.0153427   7.5960368   4.9972135   8.6680067   6.9852799
   4.6375915   7.9795372   7.5446671   4.5613891   8.5436332   6.1421788
  37.2946858  54.3153667  62.2383833  37.3230863  53.6945486  61.5103626
  38.2032895  54.5948744  62.3503876  50.4471540  65.4412699   2.9832542
  50.4193354  66.3888025   3.1160760  51.0894156  65.1288414   3.6205280
  58.5437584  51.6107273  23.8215542  59.4060040  51.9752026  23.6217380
  58.7287188  50.8317471  24.3461537  76.1796999  46.6249895  29.1339207
  76.8890238  46.6354752  29.7765517  75.3983402  46.4095449  29.6431327
  82.5870419  71.4025784  20.2535701  82.4478912  71.3205528  21.1970425
  82.2155285  70.6006241  19.8860550  75.5024481  18.3499908  11.5356171
  75.5940676  17.5190687  12.0018852  76.3819408  18.7276852  11.5441883
  13.3087313  38.8041949  27.8975487  13.1947505  38.8390994  28.8472962
  12.5655341  38.2876730  27.5859499  67.7906942  52.9067993  29.5762157
  68.0331039  52.0696497  29.9720049  67.6232290  53.4842825  30.3209949
  80.4717445  66.9986010  24.2560983  80.7578850  67.5011110  25.0188828
  81.2002659  67.0646381  23.6387491   0.3399595  35.4639435  67.2628164
  -0.4227225  34.9166751  67.4500418   0.1511796  35.8539510  66.4093018
  10.6629586  71.5617990  67.6021242  10.8219743  70.7430458  67.1324492
  11.5061140  71.7767382  68.0010223  85.5019569  49.1625977  14.5843256
  86.2038898  48.6739159  14.1545510  84.7516441  48.5684681  14.5678723
  59.0417814   2.9548317  58.2757664  59.4006920   2.4837886  57.5237465
  59.6026325   2.6995149  59.0082264  40.0526333  48.1908131   9.4408876
  39.6270990  47.4540806   9.0022731  40.8184481  48.3820295   8.8994157
  10.4650164  16.8367577  32.8993964   9.5887500  16.8958378  33.2800508
  10.6752408  17.7343380  32.6417398  72.6633310  59.5967197  27.9345155
  71.7810774  59.3869781  27.6281214  73.2435799  59.1692877  27.3045588
   7.0943695  38.1734276  55.4475546   7.8229934  37.9535270  54.8670530
   6.3574123  37.6640248  55.1104593  70.0279427  67.6964664  37.5353956
  69.5725346  67.2963047  38.2761431  69.6209526  68.5576630  37.4409127
  75.2063847  58.3732653  52.2757292  75.7620239  58.3999014  53.0546951
  75.7727242  58.6785460  51.5670013  43.3114767  49.9936104  13.9048779
  44.0823936  50.4270458  13.5387456  42.6013470  50.2206039  13.3045268
  67.2281218   8.1315517  63.3367014  66.4851618   7.8455424  62.8052521
  67.7859497   7.3567218  63.4052420  20.2109337   6.7332840  47.2997618
  19.7729027   7.4580383  46.8535662  21.0661650   6.6718888  46.8742704
  39.1221046  14.5202374  49.8681259  38.8310695  13.8398898  49.2609501
  38.3732891  15.1119339  49.9416351  66.0573292  57.4060249  29.8749566
  66.7458344  57.6247692  29.2469883  66.4147282  57.6683903  30.7232857
  47.0803165  25.9040904  47.7021837  47.3490286  25.9421444  46.7842627
  47.9023838  25.9023118  48.1925201  51.8984079  12.9519236  56.8128204
  52.1660471  13.8641536  56.7013025  51.1777210  12.8363442  56.1935568
  29.6368790  21.9812894  61.8880606  28.8216853  21.5240788  62.0945740
  29.4842553  22.8827906  62.1713209  45.0678539  40.6351566   4.6499547
  44.6046162  39.8346233   4.8964974  45.9837818  40.3678989   4.5732257
  40.9174156  59.3755960  47.0368099  41.8402672  59.5428562  46.8455124
  40.6052542  60.1864910  47.4383545  13.9836276  49.0722609  12.7777588
  14.3005466  48.3384848  13.3044183  13.5993838  48.6624765  12.0027328
  79.1628551  80.4966259   0.6036582  78.7706184  81.3684082   0.5549568
  78.8297606  80.1295280   1.4225060  75.7885790  69.1126060  27.1219134
  76.3887501  68.4914017  26.7094493  75.1565790  69.3267298  26.4356470
  28.3808088  19.0098572  64.3557453  28.8079238  18.1712949  64.1807699
  29.0487528  19.5303416  64.8020411  78.6810875  67.9266500  10.5062163
  78.9462900  68.3004665  11.3465512  77.8290510  68.3237219  10.3256571
   7.9756004  41.7007494   1.0072030   8.3453625  42.1591663   0.2526428
   8.7303191  41.5069771   1.5631562  47.2762060  77.6669741  13.4724474
  47.3493719  77.5866985  14.4234645  46.3827324  77.9777718  13.3263505
  68.4447527  65.8818913  14.9280775  67.9546070  65.2256966  14.4326997
  68.0493784  66.7165232  14.6764874  21.1669898  40.8177185  39.8541403
  21.8250084  40.2547169  40.2619028  21.6167092  41.6515732  39.7174835
  50.8014202  29.1008139  13.6843753  50.6422901  30.0123572  13.4394264
  50.3511620  28.9959288  14.5225263  50.2763128  30.4956985  57.5433969
  49.9113369  30.7939339  58.3765125  50.4615116  31.3013983  57.0609236
   2.9737481  58.6800098   2.2300714   2.3619728  59.4124699   2.1561211
   3.0592710  58.3482027   1.3363031  73.1366110  70.7245588  10.8455610
  73.9497185  71.2293053  10.8276272  73.2873821  70.0510359  11.5087831
  76.9977331  48.4603214   3.7575310  76.7978382  49.1107702   4.4307244
  77.9492331  48.3625793   3.7939504  46.0979891   1.0477874  70.2425146
  46.4266729   0.3479124  70.8067560  45.6243992   0.5919670  69.5466852
  22.3455334  80.7296562  55.7536221  22.5819969  80.2984333  56.5748215
  22.0276356  80.0211811  55.1939487  54.8200369  17.2127283  45.0626373
  54.5455837  17.9515505  44.5194530  55.6975746  17.4492407  45.3630114
  84.5332336  69.8387814  22.2692990  84.2195320  69.4207525  21.4673805
  85.1796818  70.4777527  21.9692183  67.6175213  17.1538353  39.4548965
  68.5418415  17.3943377  39.3914390  67.5322819  16.3809073  38.8967323
  59.5724583   9.1797888  64.1008139  60.1196289   9.9139249  63.8217449
  59.0482807   8.9648920  63.3292627  69.2275620  74.4159031  10.2375972
  69.1766119  75.3709650  10.1989460  69.7371292  74.2350006  11.0274398
  72.8099918  50.0800228  24.4623637  73.4172535  49.4836521  24.0243983
  73.1894732  50.2129316  25.3310204  81.4576626  77.2287560  55.3199625
  81.4242268  77.2708702  54.3642712  82.0066643  77.9708004  55.5733442
  76.2412405  73.3290243   5.4428971  75.9771061  72.8564644   6.2322944
  77.1649027  73.1057549   5.3278774  46.1176538  54.7579145   8.4593177
  45.5906010  55.0994921   9.1816556  46.8375492  55.3826618   8.3717656
  39.8383427   2.3443118  47.9127693  39.6894073   1.7854626  48.6754847
  40.7727909   2.2519620  47.7269888  35.6529927  65.5319834  26.2412572
  35.4020905  66.1515570  26.9263911  36.0661864  66.0732031  25.5685163
  29.3702650  49.2083025  50.6413937  30.1438642  48.7272835  50.9353304
  29.1117883  49.7324610  51.3994694  38.0793643  59.4575167  31.8503833
  38.6438203  58.7464809  32.1537733  38.4112310  60.2349949  32.2994065
  59.2972279  49.5391178  26.1272883  59.6752119  48.8409185  25.5926156
  59.1599321  49.1365004  26.9847727  65.7831097  64.9154139  54.6946621
  65.4074478  65.3365803  53.9215326  66.5183306  64.4047070  54.3557549
  81.8986797  74.9041319  21.9758677  81.3350296  74.8202324  21.2067819
  81.8351364  75.8275414  22.2197986  67.0733134  81.3817926  26.9432640
  67.0275108  80.7253575  27.6384091  66.6499595  82.1551921  27.3158979
  69.7751045  55.1856327  40.8949184  70.3125238  55.8234358  40.4252148
  69.2416716  55.7133293  41.4892387  44.9573278  69.5464706  29.0537095
  44.4544172  69.5889235  29.8670411  45.7140589  69.0009642  29.2682171
  74.3701220  63.1837940  26.1531591  73.5391140  62.7171183  26.0644364
  74.5046759  63.5975552  25.3005552  70.1935434  47.3960972  43.3683157
  69.8143196  47.5932646  44.2247868  69.4687176  47.5097322  42.7535391
   7.6522887  81.3741684  65.5809164   7.1632051  81.7864513  66.2929916
   7.4500310  80.4419136  65.6598043  81.2018871  72.2080469  13.3261871
  81.2243557  71.6802883  14.1244340  81.7801952  71.7474651  12.7181923
  61.4441156  34.9479413  20.0253367  61.5708876  34.6496892  19.1246665
  60.5157185  34.7939038  20.2002168  53.6200714  77.4423027  12.5969017
  53.1787062  76.8637800  13.2187855  54.4171047  76.9706011  12.3551095
   7.8280377  45.4644871  27.2438264   7.3502976  46.0859251  27.7932000
   7.2392660  45.2925873  26.5089583   3.5314295  59.9023056  10.9395206
   4.1248065  60.2587891  10.2784204   2.6569128  60.1313066  10.6248593
  54.2926741  53.8027334  17.2574794  54.3761587  52.8883171  17.5278509
  53.3578873  53.9920568  17.3384774  81.7210579  58.8040447  53.9409971
  82.0365524  58.7252617  54.8412704  80.9614372  58.2229662  53.9016914
  69.1853333  75.7326508  13.0695629  69.7685623  75.8517408  13.8191557
  69.2106009  74.7921276  12.8934753  67.4965525  11.7643332   7.9943496
  67.5417852  11.0515451   8.6316246  68.3024979  12.2616220   8.1336057
  39.4748497  21.0301232  55.2551937  38.9692235  20.5768013  54.5806026
  40.3633070  20.6869626  55.1597214  17.8633606  57.9690027  37.0695138
  18.7371087  58.3597374  37.0584249  17.8073287  57.5316715  37.9191232
  47.0993185  78.9457655   8.9162731  47.1263981  79.8527145   9.2211336
  47.9280663  78.5688782   9.2118526  20.5511856  49.6345901  59.5705175
  20.0699759  50.2989197  60.0638008  19.9266148  49.3237066  58.9151573
   6.4696372  57.8371620  19.7208333   6.9775331  57.2915411  19.1203582
   5.5924422  57.4542618  19.7086012  48.8349152   1.0449983  41.1340857
  48.4882689   1.1703358  40.2507067  49.6966219   1.4613011  41.1145401
  13.9248013  77.0319605   9.7316152  13.5285342  77.5638866   9.0415013
  14.5980382  76.5204096   9.2829514  35.3755212   5.2519792  24.4200420
  34.7315097   4.9523190  25.0616670  35.9411645   4.4933119  24.2761540
  65.0793982  58.3393192  36.9115043  64.4072723  57.6688910  36.7890215
  65.3370762  58.2552338  37.8295255  37.4008250  73.3648252  36.4311314
  36.7056346  74.0038347  36.5880060  37.8946137  73.7241983  35.6940746
  21.0691786  48.0898714  68.8750029  20.9809041  48.9729357  68.5163355
  22.0065498  47.9918814  69.0422297  24.6157312   1.5869896  10.4232705
  24.4160986   1.1639134  11.2583673  25.3361678   2.1845157  10.6236792
   3.9531025  80.1312828  19.8910129   3.2656947  80.7466793  20.1459551
   4.1105297  80.3180122  18.9654958  62.0460081  29.6314740  15.0724387
  62.5464153  30.4453063  15.1315928  61.9108772  29.5010781  14.1338384
  60.7364559  51.3786650   6.1789733  59.8654175  51.3383341   6.5738082
  60.7816744  50.6037188   5.6189281  18.7552369  17.7197933  19.5279348
  18.6160409  17.0849323  18.8252199  18.5239828  18.5629439  19.1382563
  66.0492039  22.3829532  11.9270170  66.6526031  23.0768323  12.1928549
  65.8303452  22.5908780  11.0186660  68.6206627  22.6913071  37.4969196
  69.0376949  21.9503880  37.9366374  69.3393040  23.2964420  37.3136187
  16.8856764  27.8503418  66.0985518  15.9967625  27.5362396  65.9330034
  17.1469820  27.4134994  66.9091797  18.6102402  78.0815887  13.2554638
  19.1424119  78.3680058  12.5131762  17.8047383  78.5938025  13.1844699
  34.6646094   0.4088649  49.7687387  34.7867966   1.0759972  49.0932846
  35.1635838  -0.3448985  49.4539404  79.2324924  63.8368368  46.4104271
  78.4965944  63.5204697  45.8864069  79.2138290  64.7874832  46.3002014
  73.7433863  35.0595450   9.8689961  72.8085041  35.1734352  10.0400329
  73.8798761  35.4578757   9.0093827  72.6881170  79.8611975  49.7377491
  73.0241203  79.2181349  49.1134071  72.1876764  80.4765129  49.2018652
  53.2598639   9.0305036  68.9610767  53.1819630   9.7814864  69.5494509
  52.6031160   9.1884506  68.2828712  48.3801603  14.8016942  12.3968148
  48.9391279  14.0638614  12.1531105  48.9793825  15.4368877  12.7888501
  57.4161673  46.8861866  23.5274029  57.9563427  46.2064362  23.1244397
  56.8088102  46.4067745  24.0908861  85.6370163   2.4820082  47.3651123
  86.3660622   2.2769001  46.7797470  85.9084129   3.2825315  47.8142691
  47.7453470  43.1520605  64.8623657  47.5120020  43.0648756  63.9381456
  48.1458330  44.0190077  64.9275303  19.7539663  80.8926678   2.2021067
  19.8237586  80.6631279   3.1287515  20.0613713  80.1136494   1.7385702
  57.2821569  65.4321432  24.5810413  57.1283674  64.6803474  25.1532149
  57.4526978  65.0477695  23.7211561  54.6704769  33.2417560  16.2969565
  53.9672518  33.6988187  16.7582619  54.9582911  33.8604736  15.6257021
  70.7404661  68.7061024  28.6611748  70.1942158  69.4902134  28.6062741
  71.6245413  69.0158319  28.4644294   0.9854523  50.0997829   4.1454840
   1.5595597  49.3647528   3.9301741   0.6133913  50.3672600   3.3050913
  33.9051461  77.1337795  65.1905727  33.0076957  76.8633270  65.3846455
  34.3589997  76.3195133  64.9732733  74.1721201  75.8216381  26.5249848
  73.4556007  76.4130402  26.7553520  74.5544672  75.5697823  27.3655868
  33.2329297  35.9110808  61.0129690  33.9128947  36.2435603  60.4270220
  33.7132907  35.5631876  61.7642736  52.3207664  77.3998690  47.2819185
  51.7117786  76.6949081  47.5019169  52.4828863  77.8446531  48.1138515
  18.0859137  45.8251953  29.7859383  18.6726141  45.9810114  29.0458465
  17.3405731  46.4043045  29.6267724   6.0999155   9.5963633  59.3135262
   7.0057434   9.8164445  59.5309448   6.0063219   9.8476422  58.3946514
  63.2625532  58.7511063   6.1621755  63.9652300  58.1044769   6.2281513
  63.0259085  58.7538671   5.2346927  28.6620235   7.1825999   7.1016008
  29.5197177   6.8938160   7.4133652  28.3049345   6.4216250   6.6437405
  83.2289124  28.5963821  21.9665265  83.8483810  29.1207170  22.4740267
  83.7667465  28.1686759  21.3001704  43.7025213  31.9331312  68.0918264
  43.3392811  32.1125388  67.2245884  44.5928478  32.2827482  68.0556011
  66.2695360  47.2462034  22.4510598  66.7579603  47.4521255  23.2481003
  65.4895020  47.7989388  22.4986243  54.3036270  32.8273892  67.8938580
  53.7817192  33.2218242  67.1951008  55.2081156  32.9055333  67.5905037
  48.7653589  10.9428763  49.3706799  48.0501747  10.6034887  49.9087858
  48.9248800  11.8229294  49.7116995  68.8512039  75.1008320  40.2598524
  69.4049597  74.6461964  39.6251106  69.3728781  75.1203537  41.0621691
  83.4224129  36.3239074  17.1545017  83.8420582  35.8728266  16.4219356
  82.4904919  36.3200545  16.9359851  72.8575516  40.5301666  43.6326838
  72.4324083  40.2278233  44.4352293  72.7656746  39.7983027  43.0226326
  47.0866394  44.8789501  16.3640392  47.6400375  44.3338299  16.9233465
  46.8946123  45.6508684  16.8964839  50.8487320   8.5467482  12.5890923
  49.9609947   8.8552892  12.4075556  50.7936192   7.5949484  12.5038218
  72.6215744  31.4203596   4.4278103  72.5963306  30.8710551   5.2113020
  71.7484903  31.3324332   4.0454209  48.6955166   2.1127374  48.0003977
  49.5917368   2.4247196  48.1256485  48.5897064   1.4200521  48.6524916
  42.6228094  63.7587833  59.8641109  42.7232790  63.4644651  60.7693768
  42.6973152  64.7118521  59.9124479   4.2310423  55.6018353  57.5271845
   4.1150427  56.5481710  57.6121378   5.0559664  55.5033684  57.0517540
  84.9255753  50.0233698  22.5947976  85.7791042  50.1873779  22.9958177
  85.1314449  49.6800137  21.7253423  61.7984962  66.2551975  32.7071452
  61.8352222  65.5784225  33.3830595  61.2314081  66.9320965  33.0765343
  70.8637190  48.0781507  64.1670275  70.9075022  47.5797224  63.3510113
  71.2512493  47.4985075  64.8228216   6.5965462  15.6414342  27.5171280
   6.0937577  16.4223528  27.2856116   6.0643542  14.9114180  27.2007728
  28.1844330  15.4021370  42.4368906  29.0248847  15.4165936  42.8947783
  27.8497887  16.2948620  42.5222492  42.7038717  19.4441879  18.0483961
  41.7559814  19.3190503  18.0027997  43.0096245  18.7482655  18.6301506
  60.1815367  18.7424493  32.9032946  61.0786438  19.0551066  32.7863503
  59.9618626  18.9767635  33.8049984  81.3731670  22.0418382  31.0699844
  81.6773415  21.1696911  30.8188438  80.5180550  21.8905306  31.4726186
  71.8920755  38.5242677  18.2361376  72.2017241  38.9815021  17.4542916
  72.5982332  37.9155684  18.4530652  44.5339489  25.2292800  48.6998320
  45.4529762  25.3560853  48.4641552  44.2177391  26.1074686  48.9120340
  77.8125095  61.5336561  37.3116255  78.2246685  62.3422384  37.6158524
  76.8742037  61.6863585  37.4233890  84.2010307  58.0373383  55.8877230
  84.7762871  58.5299778  56.4730597  83.3410072  58.0794239  56.3058472
  67.8908968  49.2215776  11.7439711  67.4602032  49.1821718  12.5978923
  67.9275274  48.3107567  11.4519310  24.1478181  11.1691654  65.7063293
  23.3310795  10.6701279  65.6948519  23.9252973  11.9823337  66.1596203
   8.8483745   1.4634192  51.7620802   7.9446357   1.3796496  51.4579916
   9.0227544   0.6432195  52.2237015  85.7745850  47.2973776   6.0434341
  85.3663244  48.0910254   5.6974864  86.4924355  47.6162338   6.5904760
  75.5105734  60.1259422  18.2846522  76.0957289  59.4079971  18.0430162
  74.7108889  59.9616957  17.7848923   6.2225765  19.7959244  60.1049280
   5.4639065  20.3794980  60.1145029   6.0368073  19.1503716  60.7868242
  36.5762115  73.7483597  42.1553469  36.4317894  73.7086105  41.2099409
  35.7416558  74.0518999  42.5125742   3.4156990  66.1455822  50.9217834
   3.9458385  65.3486061  50.9248972   2.5393808  65.8512974  51.1701727
  80.3496075  81.7511177  19.9534035  79.7376299  81.3341999  20.5599499
  79.9523115  81.6296101  19.0910649  80.3118134  43.7365675   5.8306283
  81.1700249  44.1541815   5.9034318  80.4512119  43.0062151   5.2278131
  36.6655254  47.5821733  20.9869099  36.4453697  47.8181362  20.0857520
  37.5821018  47.3093319  20.9459519  81.1277866  42.2203064   3.6364400
  82.0466232  42.0797825   3.4078813  80.6754780  42.2644758   2.7940077
   3.9704454  63.8562584  12.0610440   3.7599239  64.7396898  12.3634768
   3.1934369  63.3390093  12.2730422  46.0907888  21.2875533  10.5334485
  46.6050816  21.5220356   9.7609526  46.7436647  21.0948896  11.2064028
  58.9736748  12.2781432   5.4150862  59.2881632  13.0301630   5.9168774
  59.4983435  12.2880352   4.6145502  17.1730447  70.1506472  43.0496502
  17.8903079  70.4005241  42.4671316  16.6379857  70.9409046  43.1233788
  58.7722874  50.2458954  21.3906741  58.2578802  50.8025599  21.9752645
  58.7649965  50.7077456  20.5522966  72.5182343  63.8126707  35.8659458
  72.8423738  63.7128639  34.9708462  72.8099918  63.0199194  36.3161206
  51.1615372  32.6172853  56.3070488  50.6709337  33.4358239  56.2326670
  52.0130348  32.8119802  55.9155416  49.4920683  57.7833939  34.5470929
  48.9461946  57.2178078  34.0008640  50.3768587  57.6700878  34.1999149
  27.3639178  49.8751307  36.3108134  26.7621255  49.8452330  35.5670476
  28.2239985  49.6970606  35.9303117  66.6550255  65.9917355  26.6246819
  66.6485453  66.9468355  26.6877294  66.8521833  65.6944036  27.5129128
  -0.0979980  64.6369839  24.8359394  -0.0332719  64.2946529  25.7274842
   0.4252295  65.4384232  24.8485398  25.5966854   9.5498157  27.0556808
  26.2455750  10.2534187  27.0665050  25.7937098   9.0302837  27.8351045
  43.9872122  29.7955751   0.7587553  43.5741425  30.2109885   0.0017618
  44.6106529  29.1752172   0.3809879  57.5534821   2.4493967   9.8357248
  58.1644583   2.5572693   9.1068178  57.0729113   1.6478537   9.6288121
  77.3258829  31.1762762   5.8733857  76.5946531  30.6564856   6.2070763
  77.0341825  32.0837545   5.9606993  17.5558126   0.6360696  18.5465133
  18.3707511   1.1032833  18.7304139  16.8860292   1.3197231  18.5310674
  74.7739124  23.5343981  64.5571089  74.0140629  23.6396027  63.9845800
  74.4070864  23.5161662  65.4410410  74.1143274  28.2655883  44.9209213
  74.5818520  27.4654961  44.6811199  73.8407707  28.1208110  45.8267021
  64.1233444  60.2873278  20.8901334  64.2750931  61.0584784  21.4365149
  64.8653078  60.2723742  20.2855682  53.1604481  18.4890163  60.3026962
  52.7144861  17.6867092  60.0313044  53.5816145  18.8103437  59.5054531
  64.3136740  25.4296947  57.7772808  63.6572838  26.1013913  57.9622364
  64.2640829  24.8340511  58.5249281   0.4463763  53.5799456  11.9746780
   0.7402113  54.1255093  12.7042329   1.2543556  53.2481241  11.5831470
  41.7454624  18.4298587  57.3998213  41.6512823  17.9680347  58.2329369
  42.1034575  19.2847633  57.6390076  54.4853640  58.2469702  34.6219158
  53.5860729  58.2321358  34.2943645  54.7649908  59.1559076  34.5129490
  74.2415190   6.1094326  54.2422247  74.0583706   5.9186697  55.1621675
  75.0100040   5.5774492  54.0356922  75.7098722  73.8825893  25.6225228
  75.5074883  73.6658335  24.7124171  75.2054930  74.6771097  25.7973671
  49.9998236  65.1463509  17.5328279  50.6569576  64.6857691  18.0546200
  50.3673267  66.0204887  17.4022293   3.4261867  45.0336552  30.1375842
   4.1942495  44.5488977  29.8353934   3.0337715  44.4694805  30.8038807
  84.2154503  49.3862200   0.8037890  84.5468807  48.5001230   0.6581365
  83.3895302  49.2592859   1.2706675  20.9135461  78.8102198  47.4293852
  20.8381891  79.4285393  46.7025852  21.8073511  78.4736156  47.3657894
  84.3642902  67.7825546  19.7093868  84.4692802  66.9298887  20.1314974
  85.2340984  68.1798172  19.7523892  71.2289000  21.9239879  49.9606466
  72.1667147  22.0389342  49.8072767  71.0557270  22.4144745  50.7641792
   8.2457352   9.0756917   7.5942320   8.1603432   8.3248883   7.0066655
   7.4737805   9.6114987   7.4119437  13.3810568  70.7662964  11.0272944
  13.2754564  71.5437126  11.5756595  12.5271881  70.3347015  11.0566556
  54.6407270  71.2232828   2.0449720  54.5152998  70.6666231   2.8134972
  53.8257170  71.1362314   1.5505923   6.4076382  20.6388712  30.7534742
   5.9484905  19.8025835  30.6757665   6.0288900  21.0486913  31.5311813
  45.2783585  72.1466208  31.4146471  45.0508070  71.2209558  31.5017962
  45.5231524  72.4174213  32.2995043  39.1424608  11.4934182  38.2936025
  39.4197774  10.7610714  38.8440537  39.6462512  12.2403085  38.6169958
  55.8671427  63.0771446  45.5187130  56.0394430  62.1908236  45.2009344
  56.0605001  63.6417246  44.7703218  74.3221951  63.1480932  29.9780655
  73.7608290  62.3756456  30.0445747  74.2113543  63.4477568  29.0757656
  49.2679167  64.7568130  34.6492195  49.6893644  65.5958319  34.4630456
  49.5568228  64.5348597  35.5343771  18.4659886  43.1770706  16.5589595
  18.3711743  43.2844353  15.6125379  18.1291258  43.9936924  16.9275868
   9.3841493  75.9277773  12.8821683   8.7880194  76.3457727  12.2607660
   9.9166769  75.3408098  12.3454058  76.2554169  55.1364231   7.8264648
  76.8213367  55.1071167   8.5978961  76.1521482  56.0696888   7.6404881
  23.8526416  15.8800220  59.5953131  23.2009029  16.3304138  59.0580845
  23.8000011  16.3118494  60.4479456  73.8141918  76.3080978  16.9972014
  74.1605806  75.8455038  16.2341475  73.0169058  76.7315626  16.6790044
  75.9933519  23.1237984  38.8036585  75.7566833  23.9604354  38.4033346
  76.8107557  22.8746343  38.3723760  68.6337042  81.1363983  43.5894728
  68.4191465  80.7242012  42.7526426  67.8147221  81.1140060  44.0844488
  36.0956883  53.8145971  41.3896418  35.5767465  54.5064831  41.7997980
  36.9709110  53.9183140  41.7630863  75.3801680  43.6134291  65.2982712
  75.4870605  44.4401360  65.7687616  75.8173847  42.9652834  65.8505249
  78.4121513  74.2632484  61.9058418  78.9749622  74.8900127  61.4512634
  78.3457375  74.6040487  62.7978468   2.6421735  32.1815562  68.8306475
   1.7965710  32.5044227  69.1420126   3.2421762  32.3401237  69.5594025
  71.3453913  22.2236776  63.7100220  72.0237064  22.8906679  63.8160706
  70.6006718  22.6964140  63.3383369  31.9116640  38.0666280  11.7169738
  32.2708297  37.2156549  11.9681215  32.3123050  38.6853552  12.3276269
  81.6784668  21.6680312  68.7278175  81.3437366  21.1903644  69.4867802
  80.9329510  22.1847582  68.4221601  63.9504194  29.3478894  16.8511689
  63.1133080  29.0656543  16.4826369  63.7653971  29.4985652  17.7781498
  30.7173634  29.4639134  33.2851338  31.6657305  29.5622754  33.2005501
  30.5176330  28.6544609  32.8148937  80.5176830   0.0321714  51.5229464
  80.1118183  -0.6433592  50.9796572  79.8923492   0.7567760  51.5111065
  38.1711221  24.3966460   9.9773079  38.3627033  23.8496137   9.2155457
  38.6542487  23.9862227  10.6945062  66.5571308  52.1928883   3.3674574
  66.3278055  51.7566347   2.5468940  67.2893810  51.6826725   3.7134627
  32.7906418  80.2134514  30.3360629  32.0427251  79.7825480  30.7498002
  32.7801156  79.8965693  29.4328952   5.7846630   9.1639751  46.3260174
   5.6150752   8.5029703  45.6547928   6.3438815   8.7199944  46.9635010
   8.7989110  31.4046526  62.9196835   9.2114854  32.0898724  63.4455061
   8.7018520  30.6666780  63.5215187  57.3951483  52.1980047  47.0217276
  57.1669483  52.4079466  46.1161470  58.2741976  51.8232298  46.9664955
  50.2236557  23.6922359  67.0269537  49.7020578  22.8897023  67.0373058
  49.5901012  24.3917418  67.1867323  85.4547977  75.2746487  68.7308741
  84.5155144  75.1949453  68.8970804  85.6783390  74.4860077  68.2366085
  34.7012687  61.7973518  10.5899751  34.9546337  61.1143112  11.2108529
  33.8837576  61.4805794  10.2058375  46.0217476  62.7023792  70.6183195
  45.1413584  62.5598860  70.9659386  46.1428881  62.0011377  69.9781513
  64.7943497  55.0475836  64.4907999  65.5667782  55.3742743  64.0294361
  64.1195583  55.7056475  64.3239403  60.1877785  75.4572630  56.7065048
  60.4620790  74.6343708  57.1112776  59.5986605  75.1920700  56.0002136
  60.9914064  41.8704176   5.2994788  60.4790115  41.2398195   5.8054769
  60.8312607  42.7099514   5.7304859  27.9478931  69.2772484   5.6353527
  27.8162098  70.1767540   5.9349918  28.8016415  69.2914677   5.2027518
  48.5293722  18.1220090  52.9007721  48.3321953  17.4388885  52.2599125
  48.4647608  18.9394796  52.4070120  55.7140207  19.8806810   8.3728796
  55.7910347  20.0099158   7.4275762  55.8330250  18.9389682   8.4963566
  30.3451204  12.1676481  32.9411292  31.1514282  11.9124401  33.3894229
  29.6445251  11.8063760  33.4841585  15.4841065  15.5957353  19.3678570
  15.2987349  16.4718664  19.0298271  14.9187088  15.5106163  20.1355243
   2.3271960  36.6314363  26.7700458   2.1860754  35.7081151  26.9793200
   2.8843516  36.9550252  27.4779296  78.4061289  47.3876810  66.8968725
  79.1647768  46.9199324  67.2460127  78.6363459  48.3130789  66.9797659
  62.3138475   5.1340812  57.5784254  61.3747311   5.0493133  57.7430582
  62.6260614   4.2324162  57.5025654  32.2609186   8.8687575  16.8683887
  32.6973963   9.7109610  16.9965076  32.0190477   8.5876518  17.7508330
   0.7244589  18.0234408   0.3484377   1.5912780  17.6798594   0.5647898
   0.8949558  18.8931620  -0.0131518  66.2542772  30.7945085  18.5047662
  67.0748520  30.4088521  18.8116252  65.8099604  30.0802016  18.0480647
  81.3156509  16.4948595   7.4115115  80.9841442  17.3550451   7.1538061
  81.9579697  16.6810524   8.0963397  73.8324976  19.4535518  28.7759280
  74.3682098  18.7173676  28.4805036  73.2235861  19.0688729  29.4063902
  60.4976177   1.1847581  37.7647138  59.6731281   1.0285305  38.2251906
  60.4869747   2.1209154  37.5653934  60.9572554   3.2572287  20.7138181
  60.4904509   3.9750290  20.2859330  60.5115604   2.4666369  20.4095936
  49.3342257  39.9635291  16.3868141  48.4212303  39.8654103  16.6570795
  49.8407412  39.6454930  17.1341598  47.4161816  65.4032278  66.7046499
  46.4747524  65.3021908  66.5641689  47.5644064  65.0639486  67.5873470
  15.0280654  62.1872807  36.5083289  15.4136062  61.3697529  36.8233514
  14.0950215  61.9932222  36.4188719  82.0497799  33.5407639  17.0201695
  81.4244270  34.2651892  17.0397925  82.5111198  33.5998726  17.8567719
  81.9304085  31.6096210  11.1843181  82.0953846  30.9931731  10.4708719
  81.0552025  31.3831973  11.4989221  16.9222140  28.0114603  56.6514778
  16.5211725  28.5227609  55.9486485  17.8280985  27.8854704  56.3691092
  53.3979940  55.1832962  12.6943314  52.9171515  56.0105038  12.6668811
  54.0748501  55.2773523  12.0240688  21.2500763  67.0510101  67.4438810
  21.5372157  66.1380482  67.4270391  21.0883927  67.2342062  68.3693695
  82.4381447   2.4488480  15.8144927  83.1925488   1.8597160  15.8097935
  82.4243164   2.8273070  14.9353957  44.8891973   9.6347588  33.4514737
  45.8276463   9.7859240  33.5641074  44.4735813  10.3945458  33.8591743
  28.5723567  17.1652353  13.7185097  28.3096051  16.4791906  14.3321359
  29.5220995  17.2269344  13.8205469  64.4933176  11.1608481  30.6871915
  65.4048920  11.3292885  30.9257174  64.4277334  11.4455152  29.7756553
  81.4101887  20.4750013  10.0705385  81.7916489  19.6106327  10.2241051
  80.6045628  20.2983904   9.5847279  48.8037777  23.6811805  12.4301219
  48.9436483  23.7053037  13.3767390  49.6663380  23.8605762  12.0559072
   3.9855489  61.6208935  59.6672773   3.5195470  60.8565569  60.0061893
   4.6824810  61.2545633  59.1229248  35.8394527   9.7081685   3.7486410
  36.0266757   9.0842205   3.0473077  34.8899508   9.8253351   3.7178236
  38.4892130  42.8234005  13.4631932  38.0079031  42.2280455  14.0377581
  37.8142405  43.3816957  13.0772531  73.7424135  17.2703612  50.2442217
  73.7536049  17.6845002  51.1071205  74.6657181  17.1323085  50.0328207
  32.6816535  22.6266885   5.6281859  32.0085430  23.0314016   5.0810474
  32.3735285  21.7305875   5.7634312  20.6748772  40.2936125  36.3301611
  19.7227442  40.3910732  36.3434935  20.8563185  39.8253322  35.5152845
  67.2915363  21.1710382  31.6875696  67.1030283  22.1039295  31.7896032
  68.1324625  21.1451387  31.2310624  47.1588993  28.3935571  10.3681254
  47.8166389  28.0178308  10.9533095  46.7675161  27.6374054   9.9307632
  66.7088747  31.1100316  68.2748747  66.9957733  30.2498221  67.9683447
  67.3272371  31.3350773  68.9700127  41.9199181  76.3897848  20.9514570
  42.5025177  77.0494509  20.5750942  41.5327692  75.9517384  20.1935244
  35.4332447  35.9319282  10.5054247  35.1241803  35.2760363   9.8805112
  34.9730945  36.7339873  10.2580488  21.0413337  10.4004776  63.5474348
  21.5383887   9.9683386  64.2420053  20.2659965  10.7478631  63.9883518
  85.6417370  66.0974932  37.9430127  85.9836388  66.2470722  38.8244653
  85.0319290  66.8206644  37.7967310   9.4660050  77.9123640  53.3693838
   9.3924820  77.9931879  52.4184418  10.3628159  77.6113701  53.5155535
  64.5025015  33.4117508  17.4428236  65.4425097  33.5145617  17.5912905
  64.4187117  33.3182383  16.4938951  65.7104158  60.3310776   2.3088403
  65.6279993  61.0452986   2.9407609  66.6288519  60.3537989   2.0401455
  58.8736486  44.9760246  21.8639183  58.8316298  44.0652180  21.5725470
  59.6382666  45.3361940  21.4146161  50.8237457  12.7718842  23.5709858
  50.8647633  12.5448942  22.6419950  50.2846718  12.0843101  23.9619732
  83.3048820  14.5188117  21.9759917  83.9767551  14.5449769  22.6572585
  82.5159550  14.2210782  22.4289632  56.3028622  74.0446091  69.6142435
  56.5238190  74.8576641  69.1599798  56.8801117  74.0323162  70.3776979
  13.4790111   8.9253771  61.5469122  12.6550758   8.6939245  61.9756222
  13.3684921   8.6333370  60.6420755  24.7722173   0.0948664  64.0819597
  25.3144312  -0.6134290  63.7347507  25.1587081   0.8920628  63.7195587
   4.5751289  75.9130383  10.5664909   3.8685498  76.0567474   9.9369454
   4.2860690  76.3661957  11.3585305  59.2979050   1.9053471   8.0928737
  59.6149445   2.0536867   7.2019684  59.8664284   1.2168920   8.4378946
  54.1290426  16.4351261  31.2623572  54.6977520  17.1543920  31.5370512
  54.7296238  15.7698786  30.9262395  43.3688450  13.3173370  32.9407930
  43.5280895  13.1318176  32.0153427  42.4513674  13.0814159  33.0779409
  31.3759804  28.8872147  20.0237751  31.6842389  29.6408701  20.5269766
  31.5934205  29.1000390  19.1162193  72.7326870  67.1213579   8.7216711
  71.9798946  66.8491983   9.2465174  72.5408792  68.0273485   8.4795529
   8.5928863  71.7823410  42.3348761   7.9842949  71.0547400  42.4631214
   9.2276889  71.6917229  43.0455446  52.6497364  35.1178598  59.4746065
  52.4027491  35.6134033  58.6937904  53.5963774  35.0008583  59.3945265
   8.0472934  16.3858688  12.2356868   7.3131174  16.7641890  12.7195156
   8.3642870  17.1008325  11.6838038   7.3137778  59.9490356  65.3256655
   6.3759005  60.1171827  65.2343178   7.4339986  59.0661526  64.9759626
  54.5289373   6.3328612  55.4428577  53.7018967   6.0707045  55.0384903
  55.1342058   6.4315355  54.7079134  61.0407639  30.6743407  19.9959254
  60.9424925  30.9851933  19.0959561  61.9837141  30.7036805  20.1578403
  56.5274286  38.9549685   8.5696876  56.3269615  39.3891335   7.7405041
  56.1426687  39.5233965   9.2368305  69.1124630  29.1150761  14.0731859
  69.3905687  29.7627258  13.4255433  69.5406866  29.3884468  14.8844361
  47.3145247  34.6155620  19.7554994  46.8102789  34.3691111  20.5308867
  46.6810465  34.5861435  19.0385127  30.9532094   2.9056847  69.2486525
  31.5456533   2.9864001  69.9961329  30.1270223   3.2783243  69.5565271
  21.4738369  81.0305500  19.6040082  22.2531891  80.4808235  19.5224702
  21.7762971  81.8063831  20.0760484  63.5481071  37.6778674   4.1727093
  63.0260849  38.4059739   4.5097342  64.4251013  38.0442595   4.0592998
  20.8652759  77.6467562  42.4549294  21.4755869  78.3622980  42.6331234
  21.3622379  77.0387983  41.9075251  23.5037422   3.6069050   3.0769336
  22.7923918   4.1073784   2.6772594  23.9687920   3.2181829   2.3360859
  23.3383250  22.6866412  56.9846535  22.9708982  22.1053314  57.6504660
  22.7173233  23.4131432  56.9319201  54.0705681   1.2997963  16.1250472
  53.9120007   2.2304887  16.2828457  54.8503256   1.2803841  15.5702209
   0.8776496  79.3924379  64.5803118   1.7202705  79.5260572  64.1462994
   1.0980696  78.9511538  65.4006243  72.2401381   9.3400437  41.2498474
  72.5497675   9.8736084  41.9817400  72.9601765   8.7345272  41.0734224
  74.3794107  47.8469419  23.6940765  73.9706612  47.4817562  22.9093504
  75.3196764  47.7763128  23.5293293  46.8217941   6.8727110   0.2846377
  46.0175605   6.4880942   0.6332199  47.2802015   6.1390160  -0.1249798
  86.3912328  64.9180460  52.4359798  87.0404286  64.6485996  53.0857325
  85.5917581  64.4575500  52.6909637  43.6833429   9.2374939  16.8091547
  43.7950611   9.3723154  15.8681059  44.4842482   8.7910622  17.0838976
  14.3033171   9.4787014   2.4967447  14.6408832   9.5915180   1.6081768
  13.8646257  10.3064632   2.6931942  69.4308090  26.4851165  35.1375794
  69.4733763  25.6038880  35.5088687  70.3449917  26.7602801  35.0683832
  73.2990503  34.4714165  15.2577496  73.4469652  33.5649872  15.5274534
  72.4008036  34.6588445  15.5302489  37.1072793  32.9435444  19.0019763
  37.2997451  33.1935787  19.9056756  36.4602971  32.2424388  19.0800560
  44.9259901  16.5347159  20.6111789  44.1770840  16.3509560  20.0440788
  45.5797815  15.8807445  20.3639722  48.1080818   7.3810256  52.7319002
  47.5087643   6.7580509  52.3208618  48.5594702   7.7987397  51.9984150
  45.8639717  11.4813685  10.0147879  46.0436630  12.4101341  10.1608539
  45.1222658  11.4731741   9.4097745   2.2039540  12.5264311  21.8951607
   2.3616946  12.2157109  21.0036445   2.2559468  11.7384803  22.4361420
  49.9950647  42.0832491  21.6866827  49.5900297  42.6798105  21.0571647
  49.2727995  41.5383959  21.9992518  75.8130741  47.1022797  59.5521212
  75.8115387  46.8693447  60.4805422  75.0411367  47.6577044  59.4432592
  78.3602095  39.9537110   5.9484130  77.9534054  40.3925180   6.6955328
  78.8932562  39.2610192   6.3386369   9.9166423   0.4002063  47.1788216
   9.8978180  -0.5494147  47.2975540   9.8403174   0.5248654  46.2328482
  58.3911276  46.0540199  47.7092838  58.1788301  45.6325531  46.8765068
  59.0228176  46.7352486  47.4787760  11.9991148  75.0778484   0.8773998
  12.7931058  75.0987148   1.4116040  11.3065207  74.8243380   1.4875445
  24.1195750  54.1389322  61.8856812  24.9185467  54.1584015  61.3589001
  24.2246246  53.3743954  62.4519682  31.3749552  44.7452593  30.5269384
  31.5978575  45.6755495  30.5602908  31.1338282  44.5243406  31.4265394
  75.5079603  49.4785738  16.3393641  76.2922812  49.7165823  15.8449697
  75.2283001  50.2954006  16.7526615  29.6327829  16.6481519  10.7230937
  29.2802191  16.3184762  11.5496802  30.4223347  17.1277320  10.9737754
  13.3169627  14.9657333  62.5668526  14.1128862  14.4707716  62.7611494
  13.0505192  15.3315616  63.4103012  12.8756154   6.6665375  54.8934126
  13.5906041   6.4938730  55.5059576  12.7133834   5.8231598  54.4707727
  13.8763177  44.3382740  70.6384754  14.8327255  44.3765116  70.6311560
  13.6310613  44.3000555  69.7140169  70.0524426  73.3197212   4.5222363
  70.4428196  72.4473906   4.5758691  69.1710949  73.2100725   4.8792163
  36.8350053  77.2131634  21.4062142  36.2912083  76.4448929  21.5802217
  36.5952754  77.8365612  22.0918822  76.4893150  70.5965090  64.3663645
  77.2244883  70.2472782  63.8625860  76.6514015  71.5391111  64.4045496
  27.1185493   2.3593038  15.2361238  26.9121003   2.5174648  16.1573160
  27.0400739   3.2187572  14.8221016  56.1429310  79.6873188  66.0908413
  55.7235146  80.5354595  65.9459972  56.3416481  79.6751690  67.0271111
  12.0708346  75.7515764  60.0004339  11.5817130  76.5718937  59.9366522
  11.3974369  75.0779581  60.0953388  44.5586824  10.7128274  30.3116632
  43.9438486  11.4345956  30.4430437  44.7502422  10.3975928  31.1949325
  38.8309646   4.1420421  12.2958910  39.1545463   5.0402200  12.2265828
  38.2114959   4.1662431  13.0252087  73.1936550  59.0264368  67.0522022
  73.4272766  59.6750975  66.3882017  72.2375965  59.0550947  67.0890903
  86.0472164  78.6510706  18.4670842  86.8129593  79.1215372  18.1376386
  85.7380261  78.1421995  17.7176285  52.7856398  26.9839406  22.1127701
  52.2621965  27.7504110  22.3467803  52.8178406  26.9988632  21.1562276
  37.7318788  10.6492209   7.5840080  37.4853921  10.7184446   6.6616821
  38.5576797  11.1290157   7.6478964  57.9435253  41.8310738   9.8801422
  58.0422926  42.5158596   9.2186695  58.0605936  42.2853518  10.7145023
   8.3294177  69.8965597  69.6642351   8.5328525  70.8228302  69.7941017
   8.1831533  69.8132849  68.7219524  29.5174026  47.6897526  11.3869941
  29.7043729  47.8764629  12.3070014  29.3340564  48.5463667  11.0012114
  16.8084085  22.1762156  24.6178651  17.4309027  22.1204209  23.8928699
  17.0826209  21.4867640  25.2225947  66.3830090  34.1554451  69.1129398
  65.9375286  33.7076330  69.8321342  66.8225622  34.8973536  69.5283842
  79.0346861  44.1666174  13.4450161  78.7737656  43.4399080  14.0107441
  79.8812866  44.4480944  13.7918043  51.1226368  45.2881241  15.3613400
  51.0034800  44.6441460  14.6632516  51.8740654  44.9656725  15.8589494
  68.7932444  21.8560958   7.4969411  69.3720198  22.5808382   7.2603065
  68.0413008  21.9492769   6.9120204  62.0427132  34.4840193  17.3007762
  62.8796053  34.0252256  17.3739600  62.2174788  35.2062702  16.6974163
  50.7063150  75.6896210  33.2253575  51.1272573  75.2272511  33.9501023
  50.4124308  76.5166378  33.6073327  28.3172894  35.6312847  40.7803440
  27.6932836  35.1038599  40.2816725  29.1724491  35.3921223  40.4229450
  61.4415741  60.6837034  28.7538528  61.1650181  61.1557102  29.5393181
  60.6550121  60.6422377  28.2099462  12.7848089  25.1339602  29.2331982
  12.7029347  24.3461227  28.6957598  13.1035316  24.8156810  30.0777960
  43.8706732   0.2075252  33.9862418  43.9035940   0.4188000  34.9192524
  44.6892500   0.5557214  33.6327910  20.0380898  76.4659452  31.7284799
  19.8098099  77.3869896  31.8541360  20.7514524  76.4808846  31.0904193
  73.4840870  10.3975415  33.7896204  73.2611561   9.5100939  33.5086060
  72.6440430  10.8548069  33.8278270  58.7649298  57.8250313   5.6973571
  59.6120358  58.0639744   6.0735852  58.5195017  57.0193863   6.1522561
  48.0866909  81.2768269  22.1253848  47.7517271  81.5279007  21.2645745
  48.9002848  80.8084488  21.9385123  24.1259098  56.2885094  53.5267687
  24.1848731  55.7538700  54.3185520  25.0281906  56.5544701  53.3496094
  58.4217215  72.6679754  17.6398659  58.8020849  71.7968559  17.7526081
  58.3252668  73.0043459  18.5308111  48.8520241  34.9536467  24.2892098
  48.8367367  35.3883362  25.1418781  49.2418528  34.0970755  24.4640017
  64.9327612  49.2553329  11.2118316  65.0014687  48.3234072  11.4192677
  65.4329348  49.3579960  10.4021907   2.1680696  70.9134388  23.1573653
   1.3945593  71.0811949  22.6190591   2.7991340  71.5791893  22.8839302
  65.5433941  52.3811245  27.1958423  66.4992142  52.4177504  27.1598411
  65.3534889  51.6301346  27.7581429  78.7021208  55.4539871  26.7255592
  78.0493879  55.1254559  27.3438120  78.2291412  55.5324745  25.8970881
  57.2341919  27.4369740  19.1081178  57.7484035  27.7417707  19.8557246
  56.3714933  27.8322101  19.2336953  27.9739857  11.1479175  24.9630284
  27.4337816  10.7428682  24.2845416  28.2487798  11.9827151  24.5837760
  14.5765364  60.7241344  47.2719097  15.1050436  59.9733877  47.5426435
  13.7154365  60.5623055  47.6573372   2.3244293  47.3840141  48.0101490
   2.4155487  46.5224838  47.6030922   2.5468916  47.2391415  48.9297962
  19.4558120  36.3736439  17.9548669  19.5193696  35.4485178  18.1922090
  18.6474931  36.6727543  18.3712637  41.1526299   5.8269978  57.0967579
  40.9371042   6.6560990  57.5238037  40.3233862   5.5264270  56.7249441
  70.4174709  17.2392011  16.7998779  69.8810768  18.0313981  16.8305039
  71.2973118  17.5365806  17.0315671  55.3431368  54.2597771  14.6595776
  54.5584154  54.4793558  14.1573524  55.0484753  54.2453957  15.5701828
  70.4174280  14.0598369  15.3131139  70.2767944  14.8664236  14.8172605
  69.8361874  14.1392326  16.0694766  25.5140924  27.2293544  22.6959801
  24.8340654  26.9864631  23.3243084  25.0912619  27.1460581  21.8412828
  16.9280827  49.7959137  45.9395933  17.0943546  49.2826605  46.7302656
  17.4769962  49.3883657  45.2696514  65.5926704  34.6593380  64.8327875
  65.2248049  34.9582529  65.6643867  64.9736309  33.9994264  64.5204687
  54.9212074  46.2817383  57.0428658  55.7322168  46.7522860  57.2354174
  54.4187737  46.8846989  56.4949369  56.1014366  16.9729638  13.6738038
  55.2396631  16.6585994  13.9472115  56.1523771  17.8638422  14.0201759
  30.1636362  40.8728409  14.0186334  29.4168568  40.7075071  13.4431183
  29.7740221  41.2071943  14.8264956  79.2845583  45.9531355  34.0420914
  78.6033821  46.3372660  34.5940638  78.9182901  45.1158524  33.7574267
   8.0249298  27.7207494  24.1595507   8.2523686  27.2295666  23.3700919
   8.5323608  27.3035240  24.8557305  56.2561560  48.8070011  63.1465292
  55.9184790  48.8773775  62.2536373  55.4957533  48.5563326  63.6711073
  35.8868337  18.7535000  33.0158567  35.3424358  19.4900250  33.2940531
  35.9689379  18.2075632  33.7978053   7.1667427  23.4983540   8.5190654
   6.8610203  23.1531715   9.3578827   8.0536264  23.1505275   8.4258586
  35.4488659  22.4682283   5.9548795  35.8449268  21.9919395   5.2251422
  34.5061803  22.3651457   5.8246917  21.7663407  77.6889563  21.9349885
  22.5549459  78.1202221  22.2641468  21.0446548  78.2199907  22.2717428
  70.4681349  66.8053341   1.2862386  70.5424309  67.7546310   1.1885706
  69.8435783  66.5431261   0.6099171  61.5287256  20.9880447  66.2402487
  62.4049187  20.6372952  66.0805941  61.0383415  20.2509785  66.6042423
  19.8845983  66.2453699   8.0878365  18.9490747  66.3242102   7.9012555
  20.2953601  66.9137764   7.5394404  24.7767234  35.5887341  38.6567950
  24.5195460  35.2452612  39.5124316  24.0930462  35.2830648  38.0606556
  52.1574259  13.4607244  59.5729017  51.6374779  13.6359572  58.7885666
  52.3283529  12.5194299  59.5415926  13.0506301  13.8545668  66.7885351
  13.6414778  13.4739971  66.1386871  13.3936036  13.5530162  67.6297617
   3.8571727   1.8587728  13.7394071   3.9835805   0.9974785  13.3413804
   4.7441739   2.1863151  13.8883269  75.3661823  22.7116394   2.1060218
  76.0835791  22.1290874   1.8565981  74.9530315  22.2769737   2.8520793
   7.5434977  51.2894011  39.0179968   7.8314298  51.4330435  39.9194932
   6.9319844  52.0051813  38.8449478   1.0858268  19.4014883   6.7606336
   0.6553592  19.0733230   5.9711808   0.3685997  19.7134626   7.3124391
  71.3227654  35.3276873  17.2868526  72.1459579  35.7554984  17.5225711
  70.6553650  35.9997272  17.4253070  30.7204294  70.9953403  68.3158827
  30.4704165  71.5837002  69.0283108  31.1055017  70.2371693  68.7553453
  76.8878365   3.3191952  30.9720325  76.5254593   2.9980248  30.1463413
  76.1250639   3.4394664  31.5376687  54.3855572  28.6897302   3.3372015
  55.0326014  29.1496706   3.8720107  54.8980284  28.2822371   2.6389521
  26.8979716  43.0481291  26.8326545  27.0104790  43.4826136  25.9871984
  27.7748060  43.0403185  27.2164917  46.0072041  66.9471407  51.3999844
  46.0506248  66.6386366  52.3050690  45.4159021  67.6992083  51.4313936
  85.5136585   6.2031925  28.1474161  85.1741314   6.8872249  27.5703073
  85.6392670   6.6407692  28.9894247  70.6153250  12.9076302   1.8853107
  69.7684431  12.7624595   1.4634705  70.7373238  12.1423793   2.4472167
  72.3264265  71.3305998  23.2630396  71.5433931  71.1445999  23.7812018
  72.1448660  72.1743584  22.8491044  20.6708884  40.9012508  24.7698498
  21.3861012  40.3317595  25.0533748  21.0917521  41.5536070  24.2099047
  68.4202909  78.8080549  14.8678184  69.1632366  78.2689810  14.5964134
  68.4017754  78.7276936  15.8214593  53.5429096  30.9263849   1.2803003
  53.3585739  31.3251448   2.1307366  54.1467524  30.2103043   1.4773680
  39.0473533   7.6526719  62.4243307  39.2443681   6.7376316  62.2240353
  38.2622433   7.8462952  61.9121313  19.3285918  18.8588905   8.9332849
  18.8094544  18.6095560   8.1687194  20.0306439  19.4043553   8.5785687
  82.1503162  48.6543369  21.6535449  81.6291714  49.1908407  22.2508740
  82.5353050  49.2819643  21.0419083  45.7804823  40.0627947  20.9329176
  45.4305649  40.4723978  20.1417065  45.7073164  39.1226912  20.7683492
  25.0134063  72.8314066  57.3727036  24.1966081  72.5117588  57.7559757
  25.6280494  72.1053410  57.4788713  25.7046866  76.2909460  64.4790840
  25.8415318  77.2303820  64.3567371  26.1477780  75.8853054  63.7338591
  82.6139641  34.1665983   6.4603043  82.2291279  34.4635916   7.2848827
  83.2326889  34.8570919   6.2223321  56.4819717  25.2771997  26.0336804
  56.4400101  25.9937906  25.4004598  57.4128771  25.0616693  26.0901427
  82.3461533  19.9981785   6.5286011  81.4303017  19.7210109   6.5035594
  82.7849197  19.4329655   5.8927917  43.2329178  16.6763461  68.3268690
  42.5554180  16.3932669  67.7127886  42.7777624  16.7573524  69.1650248
  56.9137716  29.2896700  13.9014375  57.6514864  29.6985292  13.4488416
  56.2240505  29.9531293  13.8831091  11.7935336  27.1192193   5.8215791
  11.9748485  26.5057397   6.5336174  10.8901441  26.9308496   5.5673438
  37.3677492  51.2403774  12.3680222  37.8618360  50.9638500  11.5962422
  37.8502107  51.9961214  12.7031636  47.8136301  27.8497863   2.5494388
  48.5503149  28.0218792   1.9629994  47.3590946  28.6895585   2.6158205
  28.4788990  52.5757551  18.3856094  28.9433193  52.9874754  19.1143298
  28.4328341  51.6497469  18.6235464  10.6241417  19.7875333  62.5875854
  10.1451254  18.9733577  62.4330139  11.4316213  19.5116973  63.0213165
  76.3201380  39.1160083   8.2569808  76.6962004  38.3298445   7.8610611
  75.3814602  38.9347148   8.3044285  82.4446392  74.0875912   9.1230023
  82.7420616  73.1879568   8.9872557  82.3692226  74.4506502   8.2405436
  20.0579357  56.7055941  14.2654824  20.2593732  55.8880854  14.7208166
  20.8960724  56.9891644  13.9003146  23.1510949  45.4737139  60.3185081
  22.3420548  45.7747984  59.9049473  22.9322648  44.6122456  60.6737852
  45.1800966  30.5175614   9.4019383  44.6825695  30.9190559  10.1143289
  45.8561754  30.0026941   9.8424602  56.8406916  80.4194450  16.5858912
  56.0062838  80.4332829  17.0547175  56.6101933  80.1581764  15.6943524
  66.9299316  21.1099052  18.7255764  67.3338556  20.4806566  18.1279802
  66.8811369  21.9219542  18.2211721  17.9690778  18.0911362  57.8110647
  18.5190392  18.8745713  57.8127050  17.0742941  18.4265101  57.8669262
  57.2788668  18.6937821  55.4637146  57.2134304  18.0467033  54.7614050
  56.8872547  19.4862568  55.0964928  61.0366058  67.2310066   9.0918314
  60.5779123  68.0682611   9.1613835  61.1950064  67.1218538   8.1541598
   1.8872675  56.1677217  40.9855986   0.9718814  56.0922623  40.7161427
   2.3596853  56.3640213  40.1765776   5.3797477  66.7511654  61.7852211
   5.2766109  66.4792967  62.6971865   6.3261664  66.7550325  61.6420174
  72.8271770  20.8267164  69.8119736  72.8571558  20.2818656  69.0255451
  73.7084055  20.7641673  70.1804256  43.8446999  47.1955299   6.7374033
  43.1722116  47.8224802   6.4710957  43.9789200  47.3695469   7.6690334
  77.8356457  44.4279099   2.2761518  77.9380083  45.3000307   1.8951526
  77.7869463  44.5828533   3.2194722  72.2794151  45.7059956   2.7792642
  72.0372200  46.1392832   1.9608292  73.1107807  46.1103249   3.0274197
  31.8851709   5.0639379   0.2732003  32.3043251   4.2440793   0.0117185
  32.1503091   5.1884884   1.1844742  69.1606712  27.0841718  45.3969908
  69.2967129  26.2775755  45.8941078  68.9470911  26.7872190  44.5124388
  70.7104397  26.0796070  28.0286503  70.7188129  26.4576769  27.1493173
  71.2640476  26.6644216  28.5460854  82.6684093  23.0632496   2.1833153
  82.8858185  22.2689533   1.6954036  83.2267666  23.0276346   2.9599750
  34.9945569  21.5922809  60.9143639  34.6733093  22.3086405  61.4619589
  34.5751047  20.8101153  61.2728453  54.7347498  44.0511513  12.6778221
  54.9519587  44.4435835  13.5234284  54.2249155  44.7233772  12.2256947
  33.2149816   1.7306325   2.8792760  33.8260293   1.0150062   3.0545849
  32.4422812   1.3012700   2.5121072  77.0329285  39.6222949  19.4230139
  77.6054716  38.9818764  19.8452568  76.2843752  39.7009659  20.0143790
   0.3564226  30.6073618  16.9739652   1.0484761  31.2667060  17.0245600
   0.7770430  29.8493004  16.5681899   9.2004848  29.0207458  20.0706244
   9.3229926  28.8203502  19.1426885   9.9632716  28.6352468  20.5016470
  65.2756739  40.9479141  10.9597182  65.0374222  40.9120655  10.0333369
  64.7295713  40.2795029  11.3735151  25.8737016  65.2835369  59.7813511
  24.9560237  65.2678776  60.0531101  26.2840438  65.9258413  60.3603983
  69.8986006  31.4264083   4.2102584  69.7429085  32.3678136   4.1344467
  69.3933535  31.0416460   3.4940743  71.2531471  31.9385433  23.1956363
  71.5167379  31.7538571  22.2941685  71.2238932  32.8939867  23.2456589
  44.4680119  24.9872398  21.2992406  44.7392321  24.1442466  20.9358764
  43.8788748  24.7596192  22.0185065  59.0241814  18.7742019  24.7417045
  58.7026596  17.9609883  24.3524265  58.6378574  19.4659603  24.2046261
  15.9744227  23.5932636   4.3084487  15.8411765  24.1249633   5.0931609
  15.3458214  23.9394331   3.6749980  28.2923579  14.3358219  64.2366314
  28.4897065  13.5279012  64.7104979  28.5310555  15.0349164  64.8453379
  56.5239477  71.8023014  67.7676630  57.4470472  71.9426441  67.5569057
  56.2599134  72.5983000  68.2290792  14.8462188  21.7469001  58.2593966
  15.0866926  22.4704385  57.6806974  15.4124689  21.0245514  57.9877234
   3.3290616  50.1754236   9.4652158   3.3013225  50.4149151   8.5388750
   2.4158847  50.2128172   9.7497189   3.7529615  20.6849647  23.4005189
   2.9561034  20.6146908  22.8748655   3.9828619  21.6134286  23.3640265
  85.4135227  43.4216690  25.5134964  85.6264019  43.9990807  26.2466478
  86.2099552  42.9096889  25.3727579  32.0757318  57.0638371  58.6609411
  31.3989663  56.6082096  59.1615629  32.9004025  56.7277384  59.0119219
  73.9535999  29.3424869  41.2277317  73.3152294  28.6466312  41.0712147
  74.4853354  29.0204287  41.9555807  72.5207090  18.9852452  41.9518852
  72.5484371  19.5905209  41.2108707  73.3804798  19.0713012  42.3637342
  37.2244716   8.7719500  69.2587948  37.9199123   8.1328881  69.4143438
  36.7157102   8.4015054  68.5375690  77.4837065   9.8777723  29.1280127
  76.7792702   9.2297351  29.1210175  78.2664108   9.3782151  29.3604898
  42.8849888  65.4419041   2.4863462  42.5909996  64.9028921   3.2206929
  42.2241449  66.1307144   2.4151787  64.3534279  66.7634201  56.0251951
  63.7725973  66.4569902  56.7215967  64.7794342  65.9695196  55.7019711
  47.0151854  54.9561453  44.5371056  47.8239536  55.0183344  45.0453043
  46.3219261  54.9069643  45.1952839  24.9988770  71.3231468  51.7550898
  25.0574589  72.0351362  51.1180115  25.6682944  71.5297031  52.4073505
  56.6233158  14.9828184  59.6566772  56.3702679  15.7312500  60.1970911
  57.1556711  14.4379652  60.2363014  59.7827244  13.4644163  15.8753836
  60.1645851  14.0689182  16.5117753  59.1185808  13.9828897  15.4211533
   5.3318799  32.1504927  23.0146194   4.9398479  31.5092158  22.4219084
   6.0396808  31.6741657  23.4486246  76.1157227  39.0260696  25.9857988
  77.0505714  38.9168715  25.8115244  75.6954670  38.3268595  25.4850769
  20.2765942  35.3632998  33.3960080  20.0943589  34.7497678  34.1077638
  21.1697435  35.1543164  33.1224370  28.2892919  66.2919664  63.4212351
  27.5037122  66.0783339  63.9246798  28.6147785  67.1005297  63.8168526
  83.9854336  41.3421011   3.3421725  84.9383259  41.3206577   3.4303609
  83.7045097  40.4538345   3.5619280  69.3630695  13.6633384  17.9988825
  69.3017817  13.9672112  18.9044964  69.9347067  12.8967655  18.0416334
  36.4199829  21.4197636   3.3823454  37.3277116  21.7231250   3.3670193
  35.9443116  22.0606494   2.8539211  80.3888798  68.3672094  16.0857689
  80.3285885  68.0201912  15.1957273  79.9682713  67.7023888  16.6310525
   5.7029516  56.1599922  37.6457095   6.1933357  55.9614420  36.8480062
   5.9619027  57.0538330  37.8698182  56.0005760  22.8956318  19.7746396
  56.5773010  22.5445127  20.4531193  55.1276636  22.5889730  20.0200319
  24.4851613  75.6563759  67.7633190  25.3628135  75.8780861  67.4521828
  24.6345997  75.1600742  68.5680437   5.6433809  66.9917275  70.5632998
   4.7619379  67.2926046  70.3424736   6.1235607  67.7921464  70.7754060
  15.7317233  27.7758336  24.3510532  16.0276055  28.0047083  25.2321339
  14.8888099  28.2198787  24.2585659  55.1854753  25.2488065   6.8857175
  55.6406307  24.4107938   6.9681895  55.8671999  25.8666611   6.6216326
  66.8042517  71.2167311  65.0701666  67.6078081  70.7011318  65.1386261
  66.6313028  71.5106058  65.9645700  62.9978132  22.6027155  17.3731303
  62.9280376  22.0838308  16.5718043  62.4276876  22.1554136  17.9985189
   1.6100904  67.8156710  63.8016653   0.8136169  67.3802710  63.4978724
   2.1715158  67.8554249  63.0274200  23.1122947  68.5214424  65.7532692
  22.8513455  67.9341459  66.4626503  23.9091969  68.9442587  66.0732794
  38.1408262  70.4707718   6.3599592  37.8345466  70.4322290   7.2660166
  38.6218500  71.2964773   6.3046575  46.5924263  63.6102819   9.0719813
  46.1281061  62.7917004   9.2467898  47.4286222  63.5133457   9.5276260
  54.6342802  19.2983460  58.2346153  55.3239393  19.6286547  58.8103724
  54.7677612  18.3506072  58.2202530   1.1129209  33.2111096  46.3228607
   0.8485019  34.1300678  46.3656235   1.3099435  33.0613494  45.3982067
   6.5348071  21.6575599  21.0000849   6.0797316  21.5529799  21.8356681
   7.4627817  21.6791797  21.2338114   2.7735880  42.5230169  65.7301712
   1.8539903  42.7882957  65.7443428   2.7718106  41.6764927  65.2833843
  13.3429265   4.5031822  10.6948328  13.1585109   3.9634997   9.9260908
  12.8947139   5.3306258  10.5196917  60.0672388   3.8375691  70.2182293
  59.4340849   3.3266145  69.7139740  60.2426386   3.3039889  70.9933138
  75.5576277  32.7831864  22.8377700  75.2892399  32.8554678  23.7537265
  76.5137386  32.8200746  22.8647161  23.0499935  14.1802967  18.7042987
  23.2845163  14.5631683  19.5496619  22.7804494  13.2858527  18.9129794
  54.8304272  64.7439814  67.2951221  54.5126724  63.8415003  67.2670269
  54.3703318  65.1369238  68.0368328  66.8259716  16.8588448  14.0325534
  67.0463657  16.4651585  13.1883562  66.0105896  16.4294970  14.2914796
  67.1352959  48.1985998  25.0669479  66.4948368  47.5321293  25.3156614
  66.8749046  48.9767456  25.5598116  84.5460224  41.0882378  59.4541073
  84.1618156  41.6541719  58.7845278  85.2619076  40.6383133  59.0054464
  46.1809349  10.5985081  47.1501255  46.3469458  11.1568928  46.3905954
  46.9965887  10.1129520  47.2732830  61.2063313  74.9939966   3.5234010
  60.8028221  74.1289520   3.4518936  60.8213902  75.4978609   2.8063414
  24.0726829   0.1793337  68.1089544  24.8151350   0.7361585  68.3433533
  23.7092948   0.5837633  67.3211622  29.8228407  12.9027808  10.1047945
  29.0108371  13.1668067  10.5374300  29.5890641  12.1120429   9.6186733
  71.9096899  31.6884589  69.2878962  72.2123051  31.9821072  70.1472092
  71.6529703  32.4926615  68.8366890  78.6255598  28.2476854   7.7795756
  78.5574198  29.1607237   8.0587727  77.7711153  28.0501103   7.3960161
  55.8047533  12.1325624  49.3445730  55.1856232  12.7398789  48.9395046
  55.7147551  12.2901666  50.2844095   4.9963087  35.9410977  39.8656273
   5.2867866  36.0600734  38.9613581   5.6383467  35.3420186  40.2465773
  72.8657627  54.7347164  21.4964032  73.6498260  54.5100069  20.9954238
  72.1654510  54.7646952  20.8445573  53.7939405  39.8564529   6.6518044
  53.8049841  38.9881706   7.0545411  52.9579353  40.2356386   6.9229865
  62.9700565  25.7812452  27.8664184  62.5837660  25.6851959  28.7369275
  63.3001566  24.9084210  27.6532340  67.9640484  23.6542606  29.2403483
  67.9166603  23.2815099  28.3599806  68.8447046  23.4363651  29.5456195
  64.6995211  19.1055453  68.6692333  64.5784330  18.1859183  68.4328985
  65.2643681  19.4572997  67.9811573  76.2439775  27.8485084   6.4325780
  75.7963324  27.1963978   6.9716495  75.8662605  28.6847186   6.7051888
  65.6945133  78.7242365  14.2459393  66.5231943  78.9141846  14.6857560
  65.8993196  78.0037689  13.6499453  57.9928684  30.6603146  68.7612200
  57.5730705  29.9035621  68.3521652  57.4388885  30.8631277  69.5150137
  82.5024700  50.9238005  40.4133940  82.6105881  51.2975264  41.2879658
  82.9731655  50.0910854  40.4489040  70.8616495  35.7404423   4.5133364
  70.3579617  34.9588609   4.7406238  71.0665941  36.1466050   5.3555131
  61.8435335  10.3893554  46.0663557  60.9107971  10.5798137  45.9665585
  62.2097397  10.5208051  45.1917982   7.1033090  25.1700020  45.6658888
   7.6661879  25.8013582  46.1139822   7.5767970  24.3404555  45.7282925
  86.1353588  70.1240778  28.8881850  86.4494514  69.8149681  28.0384636
  86.8563461  70.6509924  29.2328191  76.9362640  46.1200953  23.1671047
  76.9734097  46.4021111  24.0810633  77.8369284  45.8747292  22.9553699
  23.0496264  71.3723326  59.2738819  23.3308887  70.4715967  59.4345093
  22.9050183  71.7373753  60.1468468  22.6675963  65.4103708  51.8639612
  23.4396553  65.9644699  51.7493582  23.0221176  64.5438099  52.0630074
  56.2703705  17.3077667   8.2480615  56.2172699  16.4254737   8.6154449
  56.2887430  17.1720350   7.3007119  49.7961283   2.2199452  59.5378160
  49.3246174   2.8166211  60.1190948  50.6005669   2.6884350  59.3150377
  77.7047920  68.5162783  19.5659566  77.6555681  69.4721937  19.5716703
  77.2690630  68.2588625  18.7534857   5.5527627  71.6610622  34.1707063
   6.3007063  71.0818195  34.3166113   5.4928213  72.1812868  34.9719596
  23.7402916   4.5506534  42.7502728  23.8246465   3.6786497  42.3646212
  23.2726502   5.0607884  42.0889807  62.6355839  68.3925772  34.5992899
  61.9001293  68.6316824  34.0352345  63.3614540  68.2394505  33.9943933
  68.0369186  73.7156534  35.3162336  68.9282131  73.8750029  35.0056982
  67.6263762  73.2084751  34.6159077  55.9747601  73.9970112  14.5397913
  56.2356615  73.1846571  14.9736619  56.6826677  74.6109486  14.7351933
  61.3205957  58.7250853   9.0687042  61.5409040  59.3191099   9.7862220
  61.6878939  59.1434479   8.2900524  79.4856215  23.5538006  60.0041389
  79.9548244  22.9968405  60.6253242  79.3526411  22.9974341  59.2366743
  51.5708065  12.3633945  43.5476780  52.4355078  12.3667490  43.1371737
  51.6008663  13.0854130  44.1753864  21.4065146  69.7511578   3.5684943
  21.3666224  68.7958241   3.5240006  22.3064780  69.9412155   3.8334057
  56.8110657  53.2009983  37.9155469  57.7264547  53.0397701  37.6868534
  56.5091658  53.8335657  37.2636652  76.4141369  22.6966000   7.3967004
  76.4917040  22.3445320   6.5099847  76.2023115  23.6213660   7.2695476
  80.1016998  42.4525166  23.9529586  80.6178856  42.2126532  24.7225380
  80.2398777  41.7322350  23.3378720  75.3096056  38.6815882  17.4554527
  75.7891703  39.1298866  18.1520724  74.6875668  39.3344593  17.1344244
   6.1205310  66.9605970  32.9692125   6.8566406  66.8683004  33.5740733
   5.4321361  67.3731327  33.4909010  43.8873863  47.7187872  12.1865487
  43.6685801  48.5318613  12.6418114  43.8896227  47.0525789  12.8738582
   5.7648975  53.2466269   6.9508553   6.0588813  53.2419062   7.8617793
   6.1274111  54.0540695   6.5863645  16.4907169  12.2348237   1.9259717
  16.3220942  13.1688631   1.8019980  15.9533799  11.8041253   1.2611413
  81.7379093   6.3310492  40.3082514  81.9864273   7.1188354  39.8246527
  81.9575310   5.6091851  39.7192597  23.0090189  64.0467310  22.3157549
  23.2715392  64.2662907  23.2096839  22.6146197  64.8507023  21.9776511
  43.6236382  19.3296111  54.3250370  44.0488911  19.1844440  53.4798622
  42.8060865  18.8348353  54.2699242  65.0292253  29.5263028  25.7288718
  64.5726442  29.5725989  24.8888588  65.3430796  28.6235523  25.7814527
  65.6297731  70.9530640  15.9178734  65.6922579  70.0127506  15.7501400
  66.3368845  71.1333704  16.5373194  68.2898140  64.2779064   0.1420466
  68.7545776  65.0161886  -0.2518694  68.2097387  64.5112514   1.0669097
   3.7376821  75.5313349  48.0824471   3.9172098  75.4011154  49.0135956
   3.0586502  74.8886490  47.8772688  70.3482914   9.4983953  23.5761261
  71.2230062   9.8789084  23.4966540  70.5056286   8.5798621  23.7946987
  17.3394310  75.5975389  31.0300231  18.1812716  76.0473824  31.1019731
  16.6877890  76.2923431  31.1240482  12.6532090  44.4733095   0.4506939
  11.8430495  44.3634939   0.9485026  12.6889586  43.7063122  -0.1208603
  61.2030315   2.3586436  59.5157719  61.3343382   2.7726603  60.3687572
  62.0324183   2.4890247  59.0560389   7.7341866   1.3765830  23.8585973
   7.1992791   0.8955224  24.4900131   8.2934499   1.9371602  24.3963790
  45.6538248   1.3953477  54.3888330  46.0433388   0.5350986  54.5452976
  46.0481215   1.9611254  55.0526524   3.3933139  70.4488659  14.6836066
   2.9180709  69.6926689  15.0279009   4.3158436  70.2021790  14.7493088
  78.5736370  44.3405867  64.0681648  77.6392698  44.3445683  64.2759514
  79.0075350  44.4542503  64.9137688   4.1696617  72.6918459  67.2878504
   3.3569038  72.6371336  67.7905083   4.8474076  72.3954916  67.8953600
  68.0024147  35.0698566   2.7881894  68.1182814  36.0189271   2.8336906
  67.1194220  34.9199033   3.1259426  51.7970324  34.2511201  26.1654735
  51.7619658  35.2053928  26.2315416  52.0013857  34.0820599  25.2457500
  10.8599758  13.6626732  42.4239683  10.9388399  14.4070506  41.8273830
  10.7426369  14.0590441  43.2873106   0.1500302  52.1517992  14.4853806
   0.1125146  52.3720264  13.5546136  -0.1793018  51.2542820  14.5326102
   1.8389399  61.0358047  51.5580606   1.2349238  61.2273455  50.8406258
   2.4421813  60.3865480  51.1964035  25.5949593  55.3531933  50.0458908
  25.7963872  55.7910347  49.2188787  24.7178912  55.6620646  50.2730083
  27.6425743  70.9701920  58.4226894  26.9625568  70.4475021  57.9977131
  28.2892799  70.3285646  58.7164927  73.8442755  15.4637873  65.8988857
  73.3047104  16.1489522  66.2934113  73.5788345  15.4496360  64.9793339
  73.5690451  16.7485285  13.2330859  73.6422205  15.7962573  13.2967854
  73.0697536  16.8971968  12.4300683  42.0958853  18.2165539  60.9465361
  42.9911470  18.1589746  60.6127357  42.1239042  18.9285481  61.5856838
  78.0679846  72.6758099  56.2535954  77.4047995  71.9928408  56.1537313
  77.8780174  73.2985592  55.5519390  27.1048522  -0.1376538  38.7435055
  27.6700830   0.6320875  38.8086534  26.5183401  -0.0685673  39.4968033
  58.2551527   1.3771650  39.1844010  57.3165274   1.2138098  39.0920377
  58.4940243   0.9445766  40.0041819  47.5334549  77.1624184  68.1180048
  48.1411648  77.1318102  68.8569117  48.0795813  77.3991823  67.3683882
   0.3694529  60.5965185  29.1270375  -0.2604254  60.3025103  29.7850966
   0.1443685  60.0989628  28.3409047  81.6941929  67.3220205  49.9722815
  82.2361660  67.9553938  49.5018196  82.2314739  67.0540571  50.7177734
  76.2233162  18.6541474  35.3082705  77.0758295  18.2738030  35.0966358
  76.4291716  19.4203317  35.8438230  29.6738696  73.1956673   5.7427335
  29.9416852  72.8046417   6.5743619  28.9781356  73.8089705   5.9794790
  47.0121193  35.3562212   9.9630857  46.8506908  36.1738753   9.4923264
  47.1985531  34.7168231   9.2755961  37.4862456  17.3281050  20.7120085
  37.9931283  18.0931103  20.4398489  37.2506046  16.8930411  19.8926032
  14.6022010  53.2779169  69.2530966  13.6996269  53.5185385  69.0440702
  14.8672664  53.9043903  69.9265242  72.2455835  57.0624638  23.3468556
  72.4350071  56.4459944  22.6395249  72.1905708  56.5170813  24.1315627
  10.0377703  23.6456108   7.3151278  10.6479192  24.0497351   7.9320830
  10.4733276  22.8383398   7.0415616  21.5432239  66.1398506  26.6108584
  22.2096920  66.4157248  27.2400999  20.7322717  66.5333891  26.9329071
   6.1710066  28.7620926  56.7723227   5.2860636  28.5903358  57.0942020
   6.0977244  28.6908698  55.8205938  42.6907825   7.9156011   1.2057252
  42.3909569   8.8246304   1.2068254  42.0151472   7.4411374   0.7213359
  34.5024562   7.3090279  42.5630569  34.3424582   8.0192494  43.1845236
  33.7047267   7.2680271  42.0356321  23.5943699   2.2064242  21.1809826
  23.4483600   1.3693976  20.7401872  23.7494516   1.9714835  22.0958495
  41.0345936  77.6445007  39.6456265  40.2317429  77.9490089  40.0686359
  40.9844780  76.6899252  39.6956992  12.9875660  24.0720010  50.1123571
  12.5813389  23.6431026  49.3591928  12.8133428  23.4827399  50.8462811
  11.5413845  64.5937967  67.1714640  12.3264384  64.0495634  67.1103859
  10.8165944  63.9686203  67.1796942   2.0980558  36.6267109  34.2747450
   2.5462979  35.9934831  34.8353958   1.8246220  36.1188579  33.5108399
   5.7602650   3.8542381  32.2922945   5.5510134   2.9282260  32.1700358
   5.6772894   3.9960673  33.2352853  43.5305166  28.0873156   3.6783534
  43.2287979  28.2830548   2.7912885  44.1527033  27.3685503   3.5665756
  11.3627040  61.3009691  31.6041136  11.6035557  61.3204813  32.5303102
  10.9104002  62.1315813  31.4567041   6.8146628  60.3146648  44.4080544
   6.0683572  60.4164028  43.8173676   7.0186710  61.2057543  44.6919012
  29.0869355  37.0380282  34.0424538  28.5110068  36.3289285  34.3283129
  29.2306376  37.5622463  34.8303485  74.7675228  59.1567039  69.2678785
  74.1062403  59.0437126  68.5851145  74.2645311  59.2264986  70.0792742
   0.0895723  41.4800310   1.5702555   0.0651648  42.4265480   1.7107671
   0.9350783  41.3219595   1.1502960  84.1239738  41.0421419  14.3159521
  84.7998047  41.5639925  14.7485673  83.3158398  41.5368128  14.4517767
  41.1314917  10.6052959  42.1161175  41.0390949   9.6842879  42.3599148
  40.2573776  10.8648300  41.8249130   1.0896715  66.3611174  39.7287345
   1.9767733  66.1736822  40.0355768   1.1960899  67.0928288  39.1208696
  45.5790138  79.4867039  44.5150709  45.7523298  78.5460472  44.4781780
  45.0938559  79.6725702  43.7111378  24.5265770   4.2117926  69.3033695
  23.6878371   4.3987051  68.8816929  24.6860123   4.9696869  69.8658705
   8.3674115  57.2505903  54.0721655   8.6127627  56.8009472  54.8807764
   9.2011946  57.4484921  53.6457014  72.2418785  47.9497766  53.9850616
  72.7035475  48.3430290  54.7256279  72.7131701  48.2654572  53.2140493
  81.2996101  43.2662344  37.9550076  81.7278290  43.7507105  37.2492194
  80.6485558  42.7224445  37.5115514  65.9292889  14.6638834   8.9246863
  65.9866905  13.8256848   9.3833351  66.8236065  14.8381174   8.6313140
  76.5551758  74.1096640  51.3026285  77.1953773  74.0853071  52.0138073
  75.7556486  74.4412184  51.7113495  85.1633358  80.3512001  44.9427462
  84.9492168  81.2499046  45.1932001  85.8068275  80.0683498  45.5924702
   6.1746007  76.9070101  22.9862118   5.6254840  77.5471640  22.5335431
   5.6703293  76.0940218  22.9546857  50.3181076  70.6735754  12.6024246
  50.1712036  71.1420488  13.4241188  50.9346104  69.9777269  12.8303611
  16.2693512  68.0465555  55.6399202  15.9721756  67.1371603  55.6095409
  17.1230876  68.0052757  56.0708046  15.2943611   1.8602431  46.6085100
  15.2742636   2.7294958  47.0087957  15.6293201   1.2868033  47.2978592
  62.6989889  19.6388352  54.1364050  62.3007584  18.9021468  54.6000147
  63.5846043  19.3407249  53.9289141  38.1498313   1.4857222  26.8811154
  37.8872514   0.5666464  26.8302846  39.0306997   1.5041958  26.5070033
  67.4178362  74.4277859  19.2059016  67.4740076  73.4816122  19.3394256
  66.4895821  74.5914555  19.0391982  63.5463238  62.5780773  62.2657490
  64.2494392  63.2251453  62.3220205  62.9871702  62.7657938  63.0196381
  28.0839729  17.4095142  45.5250835  27.4818063  17.3689473  44.7821283
  27.7194190  18.0891502  46.0920286  23.6189818   7.2818351  58.6329412
  23.3648968   8.1041121  59.0519047  22.8387356   6.7307436  58.6941385
  18.4047830  64.0716743  69.0596342  17.8583491  63.4980488  69.5968485
  19.0095925  64.4771051  69.6809769  52.4387980   0.2369168  10.6044173
  51.6069221  -0.2282112  10.5156898  52.4544525   0.8430971   9.8637879
  59.8406887  21.7471814  11.2387097  58.9871931  22.1358800  11.4302576
  60.3452682  22.4591517  10.8453512  74.4524288  23.8269305  16.7418456
  74.4016981  24.7225404  17.0758200  75.3423071  23.7496471  16.3977909
  70.4639626  49.1893911   4.5157424  71.0888004  49.5684862   5.1338851
  70.3907394  48.2726288   4.7811046   1.1267173  70.0245787  70.3276380
   0.2495563  70.3560116  70.1353546   1.2090051  70.1020815  71.2781396
   6.9918460  61.2956619  35.2002454   7.6823217  61.8767166  34.8811030
   7.4512482  60.6502867  35.7375312  31.7150974  67.8326797  30.7626581
  32.3901606  68.4907484  30.5969262  32.1485257  66.9965696  30.5915093
  75.1720715  79.8800135  69.0146112  75.4602242  80.7358932  68.6973333
  75.9661913  79.4733000  69.3612909  38.6480570   4.9079999  61.0642004
  38.6463451   4.4552913  60.2208233  39.5750260   5.0031757  61.2830687
   1.8896750  72.3059607  32.7853632   2.1246959  72.1616554  33.7019730
   1.8606898  73.2582140  32.6925921  14.0784848  69.3501377  56.3180780
  14.8845470  68.9909124  55.9473276  14.2791855  69.4824553  57.2445965
  72.5205946  65.6168699  48.1126213  72.7910137  66.5000582  48.3637762
  73.3414793  65.1361322  48.0064487  78.2463217  48.2213163  56.6436577
  78.0129862  48.3425570  55.7232857  77.9396820  47.3393726  56.8543196
  31.4302087  60.5358696  44.5625734  30.8034182  60.2746725  45.2372122
  31.5620995  59.7453356  44.0392208  20.2812004  17.2246933  53.9728022
  20.6207728  16.6877162  53.2568550  21.0494900  17.6822972  54.3142080
  84.5008850  80.9713554  59.8174715  85.0394344  81.6727257  60.1839113
  85.0838280  80.5131340  59.2121363  41.5648651  80.3297901  55.7641602
  41.3382196  79.4471741  55.4711437  41.1758089  80.4000378  56.6358995
  13.1029308  60.6174374  39.1219378  12.4206901  60.8291626  39.7590804
  13.4344435  61.4681149  38.8344002  25.5913258  61.5039349  32.0467067
  25.3398585  62.3595476  32.3944449  26.0810137  61.7041159  31.2489843
  56.7769480  62.1140242  11.4760303  57.6979017  61.9315195  11.2895644
  56.6266394  62.9856396  11.1100721   6.6891122  31.8409157  19.1978705
   7.4317586  32.4375868  19.1046524   6.9857401  31.1862516  19.8300576
   7.8789425  25.3430200  41.8987942   7.3332411  26.0581946  42.2258568
   7.5882763  24.5754361  42.3912954  22.9258752  75.8763027  10.5294251
  22.7580452  76.0807085  11.4493608  22.8883171  74.9208403  10.4856610
  84.8742867  61.7597008  42.4271107  84.6447849  60.8504295  42.6189232
  84.4438362  61.9443893  41.5923452  71.1894417  60.6445026  52.7864599
  71.8960476  61.2716198  52.6326323  71.6365862  59.8382092  53.0437183
  20.0635433  62.8134394  60.9457350  19.9307954  63.6739445  60.5480719
  20.9963059  62.6353264  60.8254623  73.9706802  37.5628543  55.6234169
  73.8139486  36.6415024  55.4165840  73.3748722  37.7502012  56.3487768
   6.3286495  54.6195936  43.7865829   5.8246326  54.9362850  43.0369759
   5.9768748  55.1038790  44.5335484  16.9577003  68.2851124   2.8103030
  17.3515260  67.5298691   3.2470438  16.4871275  67.9121971   2.0648319
  14.6083236  65.6097555  56.9297123  14.1308260  65.9918308  56.1933374
  14.1460061  64.7927904  57.1169424  69.7865677  12.2356164  35.9584379
  70.4618454  12.8146362  36.3119483  69.9286413  11.4011431  36.4053178
  84.9007893  54.2451572  36.6119146  85.6790352  54.6651602  36.9781947
  84.5189857  53.7656212  37.3471045  64.1371632  31.0622573  63.7607765
  64.1643047  30.1889563  63.3698273  64.3900013  30.9240055  64.6735716
   4.2935172  29.6017838  60.2838182   3.6493155  30.2604675  60.5433798
   4.8526490  30.0504923  59.6495724  33.1414127  14.3488955  39.0769482
  33.2117414  15.1123500  39.6500301  33.2607031  14.7000158  38.1944990
  36.2693810  22.9550934  21.1863852  35.5055904  22.7402329  20.6509495
  36.9394445  23.2153153  20.5542994  63.1586981  39.8514915  44.8931122
  62.5975609  40.4862833  44.4476938  63.6920929  39.4718695  44.1948223
  28.3849883  10.5260468  61.4798498  28.5970116  11.4436376  61.6510391
  29.1788745  10.0480294  61.7195892  34.1483426  73.0096197  10.6596112
  33.8357306  72.2047520  10.2464616  35.0786996  72.8510857  10.8194017
   7.1232110  44.9696636  22.6130128   6.8630397  44.6229601  21.7595863
   6.6204828  45.7788706  22.7061677  35.5797863  77.3234129  69.1221619
  34.6434355  77.1299124  69.1672897  35.6420183  78.0673504  68.5230637
   1.6066454  19.5266783  50.3600883   1.7035075  18.6348605  50.6940222
   0.6965038  19.7554743  50.5485725  84.1252995  10.7097268  37.7381349
  83.6589146  11.4347506  37.3221302  85.0233936  10.7863724  37.4159694
  25.1757145  40.9376669  45.2052498  24.8213601  41.7425680  44.8273611
  24.5135212  40.6580734  45.8373547  73.0678940  13.7147939  34.3479967
  72.8145504  13.2619965  35.1523733  74.0082216  13.8657093  34.4440913
  60.4188538  23.7530875  45.3051281  61.0912132  24.4199514  45.4446268
  59.8185778  24.1469479  44.6720648  84.3847179  64.9396420  69.7790861
  85.1347733  65.2107620  69.2497921  84.2276478  64.0305376  69.5239735
  76.8002129  64.0338898   3.9602160  76.9409847  64.5253134   3.1509462
  76.5292931  64.6946192   4.5976081  17.8757894  16.1780846  38.5920143
  18.6342680  16.0848367  39.1684222  17.5147152  17.0377386  38.8084698
  24.6126318  69.4033575   6.0991460  25.1419592  69.5866108   5.3229600
  24.7520781  70.1602268   6.6683000  81.1495209  56.1419868  22.4675274
  82.0842552  56.2261009  22.2792912  81.1140156  55.6601095  23.2938242
   8.2112879  46.0089922   8.8773865   8.3925396  45.5781698   9.7127140
   8.2708347  46.9442320   9.0723610  72.5097179   9.7864920  20.7503796
  72.6748943   9.6710342  21.6861248  72.6481390  10.7210052  20.5962491
  29.7177553  20.4894733  66.4361048  29.1054320  20.4914689  67.1718264
  30.1923776  21.3167453  66.5172672   2.6820853  36.8962479  48.3839035
   3.4248745  36.3289261  48.5904026   2.9496562  37.7624631  48.6910009
  69.6986437   2.7972138  11.5027809  69.2165565   2.8834796  12.3252046
  70.2648211   2.0369357  11.6356480  47.7998829  13.7144148  46.8724537
  47.7163410  13.3352911  45.9975147  48.7160492  13.5704386  47.1093893
  25.8237386   7.8418684  55.0419044  25.5802917   7.0987475  55.5939341
  25.1577806   7.8579313  54.3545389  59.0977287  48.3199835  18.7178135
  58.3536243  47.9536629  19.1956735  58.9395189  49.2640114  18.7153673
  15.4920197  19.1015899  58.6214638  15.5557966  19.3001986  59.5556593
  14.8423016  18.4005976  58.5694408  73.6523390  66.9156408  62.2502375
  74.4902706  66.9822598  62.7081299  73.1680489  66.2459993  62.7332211
  71.8537855  35.0233293  34.9637628  71.6319942  34.7022915  35.8378172
  71.8421650  35.9766841  35.0486827  12.4195015   3.4107271  35.9485674
  12.8441918   3.5348710  35.0997686  13.0933750   3.6383447  36.5891266
  61.6014624  64.4900799  39.9339175  62.1644449  64.3933821  39.1658473
  62.0714378  65.1025915  40.4997730  37.4398947  10.9056175  59.5518923
  37.2207117  11.5451002  60.2295732  38.2007027  11.2792182  59.1071177
  47.1465540  71.1360168  58.7470770  47.2289085  71.4271784  57.8389597
  46.6566133  70.3155565  58.6920452  37.6811981  66.4439440  27.9599094
  38.5067987  66.4318323  27.4756932  37.1770263  67.1503210  27.5560856
  32.2919989  31.9866228  19.2731500  31.4005828  32.3289776  19.2067933
  32.8512621  32.7285218  19.0428460  18.7279141  58.4936094  25.0562263
  19.2699718  59.2150259  25.3755498  18.2917428  58.1570673  25.8389950
   2.6097071  53.4497547  25.0142384   2.3673154  52.8206825  25.6937575
   2.4340950  52.9931498  24.1914988  14.9029827  67.3182058  24.0172124
  14.0391994  67.0353603  24.3173885  14.7227633  67.8761959  23.2606411
  29.9300599  66.5772390  41.2329769  29.5528603  65.8377218  40.7564545
  29.1873169  66.9713402  41.6904116  11.7580998  59.6331644  48.5156345
  11.8508351  59.2852688  49.4025421  10.8251178  59.8300600  48.4319258
   9.2535532  30.6287050  59.0542507   9.7004068  31.3920736  58.6884356
   8.7769210  30.9699941  59.8109341   3.5708463  70.9025955  40.4324484
   2.7135134  70.9426451  40.0086451   4.1881597  71.1643934  39.7493529
   5.0269496  66.5191078   9.9645823   5.8778703  66.8908501  10.1969039
   4.6379972  67.1627712   9.3724281   6.1068183   0.8260047  51.6218662
   5.4586869   0.9818465  50.9349346   6.1885208  -0.1268421  51.6623545
  15.4013944  68.1842375  51.5391493  15.8031762  67.4340487  51.1009455
  14.9548674  67.8077269  52.2974920   5.7114685  66.6698551  64.8937178
   6.3800997  66.2278891  65.4170084   5.0406730  66.0025167  64.7490788
   5.5370849  31.8272305  67.3471785   6.4642817  31.6229367  67.2255135
   5.0749642  31.0937071  66.9414425   4.7438511  35.4717088  49.1692543
   4.5436463  34.7135401  49.7181892   5.6974560  35.5471444  49.2035913
  82.8119755  54.4523430  30.3651214  82.1009064  54.3019009  30.9880018
  82.7582455  55.3860331  30.1612353  11.4507651  80.7828617  31.6784596
  11.8126595  81.4511776  32.2603726  11.1244559  80.1031017  32.2681046
  10.0569773  71.1883688  54.2964125  10.3033161  72.0021009  53.8566542
  10.6705451  70.5371141  53.9563560  13.9380038  75.1686478  23.3541155
  14.3336201  76.0286379  23.2122254  13.0586147  75.3603554  23.6799288
  32.4314642   3.9697674  52.6251364  32.2292280   3.7886485  53.5430336
  33.1667757   4.5816994  52.6581240  82.3495579  17.6149619  47.7634621
  83.2741833  17.3729062  47.7114105  81.9782257  17.3226845  46.9310427
   5.9642458  69.4645977  55.3105545   5.0423193  69.6441603  55.4950523
   6.2405998  70.1866102  54.7461462   1.7237940  67.6479340  26.7337298
   1.8140712  68.0087423  27.6157141   1.0868061  68.2195854  26.3051367
  79.7958708  35.8026862  22.6150036  80.4490376  35.6357241  21.9355011
  80.3098488  36.0054636  23.3966303  14.0769422  19.6759129  43.0426455
  13.9860666  20.2367377  43.8129997  13.9737082  18.7862957  43.3805132
  30.7530904   4.4415057  35.5010772  30.1520896   4.7170636  34.8089075
  30.1842809   4.0921056  36.1870861  36.3967466   2.5021902  48.2283354
  37.1119666   2.9748878  48.6540699  36.8155384   1.7350441  47.8380394
  77.7981806  63.1685114  58.9512253  77.0997047  63.8099718  58.8212585
  77.7769232  62.9779673  59.8890257  16.3133132  11.7890382  56.3848400
  16.4347053  12.7210307  56.5661860  15.3637290  11.6731966  56.3516188
  11.2905788  49.4267654  58.4588146  11.6229630  50.0334692  57.7972555
  11.3155973  48.5701752  58.0323696  19.9386048  53.1070375  54.6374798
  20.5127645  52.5051594  54.1638660  20.2941465  53.9755154  54.4488859
  19.8186374  72.9436731  65.3432322  19.0383530  72.4116325  65.4991817
  20.4909849  72.5519085  65.9006357  66.2245560   7.6642716  25.7856774
  67.0610476   7.8709048  26.2025928  66.2496424   8.1345618  24.9523544
  72.6690245  58.9249945   3.7163526  73.3319616  58.2743168   3.4853432
  71.8836308  58.6437893   3.2469833  84.7412586  59.7901392  65.0876999
  84.6541977  59.3012857  64.2693615  85.4086494  60.4507589  64.9022150
  62.4587059  77.7473450  47.6067400  61.6664362  78.2672071  47.7419519
  62.7721024  78.0091238  46.7410135  17.5300395  46.8062592   9.6762979
  17.5693333  45.8877277   9.4098520  17.3209369  46.7760897  10.6098914
  69.2284155  73.2563734  53.0280638  70.1734734  73.1298447  52.9438543
  68.8448238  72.5151539  52.5593567  71.5387774  15.1758766  55.6432056
  71.1308098  14.8922002  56.4613247  72.1807051  15.8334458  55.9110928
  82.2418499  13.1966197  50.6187057  82.3607540  14.1175401  50.3863287
  81.9336987  13.2160830  51.5247393  51.8739605   7.3313582  65.2336931
  52.6001024   7.5948334  64.6684217  51.2729836   8.0761307  65.2144003
  80.6858921  56.2696981  41.6183996  80.4635334  55.4060888  41.9662046
  81.1049366  56.0884476  40.7770967  -0.2622859  64.5281172  41.6833115
   0.6168874  64.8849630  41.5570974  -0.1198069  63.6906099  42.1243477
  16.0146308  75.0885105  41.7634583  16.6734135  75.7210493  42.0500422
  15.1881886  75.4338408  42.1010542  15.1383686  65.5421925  47.5841856
  16.0339057  65.8784580  47.5499392  15.1408660  64.9285650  48.3188152
  75.1180744  48.3368206  26.7788768  74.4848919  47.8144884  27.2712970
  75.8106899  47.7179766  26.5474701  62.9146385   2.2811994   3.5488582
  62.3529434   1.8282183   4.1777766  62.4146461   2.2740941   2.7326563
  80.7450962  66.7373991  36.3354349  80.6965542  66.5818834  35.3921986
  80.7960892  65.8623934  36.7201328  28.4745550  15.2808118  39.6711540
  29.4172931  15.1770055  39.8003793  28.1356430  15.4938579  40.5406237
  77.6651001  68.1339550  29.3067980  76.9994211  67.6716805  29.8161125
  77.1739054  68.7847185  28.8053274  49.3130636   1.6592561  63.8743782
  49.5267391   0.7731928  64.1667271  49.9344444   1.8346977  63.1677437
  70.1206541  71.0236502  69.2079210  69.2796373  71.2329674  68.8015890
  70.7571459  71.1074686  68.4979296  85.1428413  46.3855839  45.0811672
  85.7130814  47.1404266  44.9353266  85.7436180  45.6638193  45.2665281
  26.2038732  80.7742691  36.8426824  26.3685107  81.2424850  36.0242081
  26.9896317  80.2446079  36.9778514  80.4330063  55.8150625  45.2544785
  80.5382729  56.7415285  45.4708385  79.6131134  55.5617332  45.6785393
  20.3082323  36.1829758  22.4636483  19.6276295  36.5269375  21.8851113
  21.1246896  36.3275957  21.9854069  13.1895983  74.5685530  20.3766370
  12.2403097  74.6896696  20.3969669  13.5401762  75.3524208  20.7995749
   0.8223160  45.3472090  41.9991589   1.3428700  44.6699905  42.4311686
   1.0937510  45.3093338  41.0820341  18.4977257  80.1101398  27.6163220
  19.4308102  80.3031540  27.5250554  18.4462595  79.5305443  28.3763599
  23.1582332  31.6786647  26.8339491  23.3349800  31.0048270  26.1774945
  22.2089386  31.6529512  26.9539928   4.3154821  45.7547426  36.4406109
   4.8772785  46.4453363  36.7923093   3.9599761  45.3178358  37.2145367
  47.0487547  28.2920599  54.6068668  47.5002718  28.1926274  53.7687254
  47.5061035  27.6938009  55.1977539  40.2093267  18.0633032  36.1113167
  40.7834816  18.3954215  35.4211903  40.1332521  17.1266222  35.9294558
  66.2100983  57.2154760   4.3334424  65.4073620  56.9773197   3.8696206
  66.1060953  58.1465578   4.5296514  85.0163937  60.0412416  13.8020813
  84.8748684  60.0819111  14.7478867  85.3520393  59.1581774  13.6478841
  23.1117320  76.6400671  24.3321252  23.5708117  76.3137627  23.5581684
  23.4413338  76.1009693  25.0511336  75.1678801  75.3137016  28.9682341
  76.0480976  74.9759054  28.8028717  75.2823019  75.9411287  29.6820092
  22.4791622  65.0723076  31.2013316  23.3008218  64.5828867  31.1616516
  22.2888327  65.1453829  32.1365690   4.8512816  57.8853130  34.7778392
   4.3457410  58.6871767  34.9107981   4.7626805  57.4068689  35.6021380
  18.8744450  35.6152987  14.4499016  19.1056514  36.4640141  14.8273349
  17.9172885  35.6062412  14.4491780  65.8821058  55.3935480  36.6809082
  65.5973530  55.1996708  35.7878470  66.0183144  54.5345545  37.0806718
  63.3086491  63.3479881  37.8998518  62.7398634  63.2080078  37.1428037
  63.9820004  62.6721716  37.8217435  64.5076370  68.4856987  41.3086081
  64.6407127  69.4194221  41.1452770  64.3744087  68.1071424  40.4395962
  42.1831274  28.9665937  53.5343647  41.4409065  29.3009615  54.0378857
  42.6008272  29.7492957  53.1750011   0.7275128  48.6944532  68.6413240
   0.0879350  48.3085632  69.2398739   1.1774157  49.3566847  69.1659880
  22.9970193  40.9778547  68.9832497  23.8752961  40.7171917  69.2605877
  23.0374551  40.9761047  68.0269051  22.0140576  36.4184546  61.5362692
  21.0909128  36.5107155  61.3006306  22.0129228  35.8105469  62.2756433
  29.4874310   5.1101744  54.8411083  29.0519714   5.2358633  55.6842041
  28.8022661   5.2684444  54.1916990  58.6121893  51.6812611  41.9739389
  59.3208551  52.3203182  42.0489407  59.0005636  50.8573151  42.2680712
  67.1416998  39.7713375  62.3922539  66.3081598  39.5271969  61.9899559
  67.4724960  38.9568758  62.7710056  83.1204033  30.1523685  15.5703163
  82.7695751  30.4399490  16.4132011  82.8869629  29.2255807  15.5173683
  22.0751143  40.6047630  53.8388491  21.9466305  39.6706462  53.6740732
  22.1238399  40.6753206  54.7922039  72.5993824  11.2697005   5.4712898
  72.9147911  10.3785789   5.6218004  72.2054386  11.2402773   4.5994106
  21.4458466  38.3688474  50.4967976  21.6651225  37.5509429  50.9430981
  20.7858038  38.7776828  51.0566473  59.0882540  34.0245533  21.6087127
  59.5983934  33.2461166  21.8323803  59.4326925  34.7094703  22.1818495
  58.1991005  33.4122515  16.8481064  58.7060118  33.0793118  16.1075532
  57.7869940  34.2101741  16.5168643   2.7931011  40.2852201  63.5383272
   3.0206212  40.9621382  62.9009533   3.3217257  39.5289850  63.2835722
  72.2122288  78.4088707  16.5296006  71.7805147  78.5717535  17.3682439
  72.7304649  79.1976213  16.3698089  72.1749210  40.8739901  61.2467718
  71.9883060  41.7165184  61.6609573  73.1145573  40.8988905  61.0659599
   9.3128794  41.7870855  49.3065834   9.9924552  41.4048386  48.7513399
   9.6879596  42.6141071  49.6092033  74.4343853  69.1640568  44.1516447
  74.3964386  69.9387026  43.5906506  75.0445032  69.4032478  44.8493385
   8.0363041  74.3537331  18.4768510   8.7846828  73.8873672  18.1044781
   7.4138385  74.4243193  17.7531207  77.6419592  39.5263076  30.4751253
  76.9988108  40.1158810  30.8688140  78.4834242  39.8251867  30.8198571
  27.0120692  35.5947089  21.6034913  26.6115141  34.7464561  21.7938948
  27.9539227  35.4258299  21.6284513   0.5707088  76.8901157  40.2974129
   1.1379793  76.1375570  40.4650021   0.2686192  77.1601725  41.1646175
  81.2473392  74.9548960  14.3061256  82.1900463  75.0805569  14.1978002
  81.0854053  74.0680075  13.9845145  71.8037510  63.8984966  40.4573965
  70.9433508  63.6883497  40.8204174  71.8709898  63.3563662  39.6713948
  45.1497459  61.9751835  49.5292616  45.9176254  61.4211559  49.3891001
  45.5056047  62.8590441  49.6208572  77.0979738  81.1039734  60.7318735
  76.3467073  81.5154266  60.3046322  77.2880316  80.3353119  60.1940250
  19.5819724  55.9517384  19.5109165  18.8188815  55.4278421  19.7547531
  19.7908282  56.4522362  20.2996588  75.0998735  29.4722199  36.6302633
  75.1297855  29.9233150  37.4739766  74.5388985  28.7121749  36.7847872
  68.8104057  77.4521828  35.4578781  69.5070457  77.5742245  36.1028790
  68.0005789  77.5351524  35.9613991  24.3595529  10.5330074  57.6794434
  23.8930964  10.2466035  58.4646988  24.5859575  11.4463115  57.8550816
   4.2545348  79.7882843  69.2953491   4.9270111  80.3882885  69.6178389
   4.2550930  79.9154663  68.3466387  14.5428920  31.7547941  62.8491449
  15.2520728  32.3666358  62.6518059  14.2617893  31.4300132  61.9937325
  44.9208927  34.3588042  21.9471240  45.7142878  33.8270044  22.0099759
  44.2715740  33.8823247  22.4644113  13.7830591  50.4791021  27.2505713
  14.6804667  50.7775354  27.3983121  13.5077047  50.9331560  26.4541745
  53.6820793  71.8585682  14.9414587  53.5260487  72.6043081  14.3620133
  54.6212006  71.6893196  14.8664141  54.2286539  19.3766010  12.5705040
  53.7916374  19.1743231  13.3977461  53.7142086  18.9145648  11.9086146
  74.0063429  53.2572937  41.7954016  74.1346121  52.6996803  42.5627661
  74.8918724  53.5004520  41.5253115   4.7078595  78.0135918  44.2044020
   4.3199551  78.7531328  44.6722031   5.1194322  77.4863386  44.8891211
  85.6436825  48.1506920  65.2519035  85.5844975  48.0634880  64.3005228
  85.8539581  47.2693729  65.5605841  34.7582936  57.3094702  13.7973392
  35.0411510  57.0583820  12.9180324  34.9750185  58.2395506  13.8621998
   0.5749165  56.1351538  16.8105257   0.6872769  57.0715809  16.9739699
  -0.1180251  55.8680630  17.4144530  58.8416624   5.7556117  58.6170053
  58.0247402   6.1321646  58.9442301  58.7449265   4.8138916  58.7585592
  71.0798788  77.6333857  45.4048157  70.1559782  77.8230238  45.5681324
  71.2689686  78.0637598  44.5709944   0.4235776  65.0506163  60.1135874
  -0.4089228  65.4556370  59.8704386   0.6644758  64.5227146  59.3523216
   6.4358431  66.3721323  22.6411819   7.0866531  65.7797813  22.2646189
   5.6525099  65.8320522  22.7457500  26.8976665  61.8564081  45.7753325
  26.3288927  62.6104832  45.9305716  27.6258540  61.9761229  46.3849592
  52.1889162  51.2910652  52.5743723  53.1068373  51.1883402  52.3231840
  51.9872046  50.4996586  53.0735970  76.5122795  42.6015568  35.3832150
  76.2655497  41.6913462  35.5471277  77.4667072  42.6077795  35.4557323
  10.2986729  56.4742756  30.0502801   9.5113254  56.6466713  30.5666089
  10.8804369  57.2081280  30.2483630  84.2709923  28.1647873   9.6002305
  84.3380928  28.6931419   8.8048887  83.3697987  27.8421640   9.5981276
  25.4531217   9.4923490  39.1708398  24.5392966   9.3522388  38.9227986
  25.7071400  10.2908945  38.7082052   1.1317883  54.2831421  34.0408540
   1.5178581  53.8785362  34.8176932   0.1884668  54.1663599  34.1537166
  18.0415046  55.7031059   3.0311465  18.3285391  56.0285902   3.8843173
  18.8390517  55.3668404   2.6223943  13.1790674  66.0077953  20.7923555
  13.3476627  65.1360178  21.1498666  13.5665143  66.6072512  21.4301372
  20.6562686  70.5104971  21.1901760  20.5907655  70.3262758  22.1271944
  20.2658844  69.7453690  20.7677865  46.7141008   2.0689584  60.1971865
  47.0180845   2.9757792  60.1584387  47.0635605   1.7342860  61.0230827
   1.0709485  55.2344036  47.0507145   0.7701807  54.3879271  47.3812389
   2.0060092  55.1096439  46.8884516   9.5761919  30.3917742   8.8686407
  10.4304183  30.7730627   9.0714884   9.1537458  31.0379696   8.3027768
  19.3305147  45.1372099  70.6801462  18.5030472  44.6892023  70.8557081
  19.9134719  44.4477034  70.3623867  78.2906294  30.3862166  25.1449180
  78.4802246  29.4481444  25.1273322  78.4447336  30.6447220  26.0535765
  22.5756097  53.6080885  28.4811449  23.4494686  53.9649820  28.6399794
  22.6843333  53.0384016  27.7196527   6.1405647  30.5946803   2.9431078
   5.3209442  31.0885644   2.9200223   6.3059342  30.3622079   2.0294112
  25.2400994  27.0481896  39.8166132  25.9507251  26.6709900  39.2979956
  24.9702454  27.8237796  39.3248081  53.2543468  68.1180906  65.2046394
  53.1722069  67.2715044  64.7655821  52.4010849  68.2588911  65.6149435
  66.6221142  73.1553602  31.0695171  67.0175409  73.9005613  30.6172562
  65.8712721  73.5270739  31.5324426  29.5762920  32.9646516  18.9586043
  29.0259933  33.0209517  18.1774294  29.3710089  33.7576342  19.4538498
  15.3147507  54.1749859  66.4463997  16.0661221  54.5124865  66.9340134
  14.8574305  53.6117411  67.0707750  74.7009659  54.2937183  69.2746973
  75.5645847  54.6972179  69.1876459  74.7819567  53.4544420  68.8216114
  16.5242839  72.6737928  36.2898874  16.7865872  73.5905981  36.3729286
  15.7185137  72.7009964  35.7739162  82.7580261  21.7786336  20.2002525
  82.1918583  22.5097537  19.9529767  82.1619511  21.0358238  20.2959442
  19.3121290  47.1025944  31.9667125  19.4782484  46.8342590  31.0630345
  20.1607037  47.4106312  32.2849321  21.8744612  49.1771364  48.5415220
  21.9050431  49.5944881  47.6806402  20.9442401  49.1601133  48.7665319
  30.7940149  37.4601960  61.0360289  30.1253319  37.0553684  61.5884876
  31.5513039  36.8797445  61.1123180  29.8601484  12.7521932  62.3545170
  30.5413413  12.2809482  62.8342438  29.6163630  13.4749699  62.9327869
   0.3922917  55.6954670  29.8194098  -0.2002459  55.3288889  30.4757261
   1.1661896  55.9601831  30.3166413  12.1999264  66.4319324  24.7277594
  11.3810802  66.7161036  24.3215942  12.1057558  65.4837227  24.8186564
   3.5017955  55.2646065  49.6754026   3.2823458  54.7542334  50.4548883
   3.1156194  56.1255455  49.8362684  17.8153074  40.3442812  61.5428686
  17.5054014  40.8851099  62.2692919  18.6366296  39.9672723  61.8583441
  85.9153366  46.4605522  31.6741896  86.8369007  46.5836191  31.4465976
  85.9182453  46.3293362  32.6223493  33.5703588  31.1827683  13.0656075
  33.3617663  30.4976273  13.7006700  33.9807153  31.8740535  13.5851860
  76.9272804  50.8006811  11.7790294  76.5769005  50.6530046  10.9005880
  76.2331915  50.5026674  12.3669600  52.4887419  26.5484571   0.4290776
  52.1919441  27.0626926  -0.3217240  52.1101713  26.9922113   1.1880214
  18.7213230  64.5890617  18.7937999  18.4502089  65.4907608  18.6215377
  19.4275081  64.4276094  18.1681275  84.6036625  59.7187328  48.9407158
  85.0511742  60.2442551  49.6038818  84.6195221  58.8278008  49.2903233
  17.4822068  40.5916977  44.3149853  17.7764082  41.4899683  44.4659567
  16.7406988  40.4793692  44.9097824  19.3371737  60.1483011  67.5859499
  19.9943578  60.4444218  66.9561481  18.8579631  59.4591379  67.1259022
  71.4479876  81.0693836  38.2941008  70.6271648  81.4112282  37.9396701
  72.0305538  81.0123253  37.5367427  24.7111630  73.7743473  50.5012369
  24.6318245  74.1512394  49.6249437  24.3342209  74.4357729  51.0814667
  40.4787588  41.6359520  62.6845646  39.7975111  42.0984507  62.1964741
  41.1137915  41.3726997  62.0184851  72.0630550   4.5852688  18.4291983
  71.9346666   3.6692268  18.1829977  71.2903452   5.0355411  18.0880165
  37.6587272  10.0526893  16.6871941  37.5890112   9.1323680  16.9409239
  37.6814580  10.0362933  15.7304049  56.5942812  26.1936092  57.8774691
  56.9849825  25.9677768  57.0333242  56.5555477  27.1500206  57.8752661
  79.2540836  69.9237728  60.4394150  79.7343397  70.6572819  60.0552940
  79.5852900  69.1529989  59.9784994  84.4276142  56.3843727   0.1294431
  85.3780079  56.4530277   0.0384744  84.2985439  55.9467840   0.9709229
  40.5231047  35.4229617   4.4864717  40.0022793  34.6682572   4.7610503
  40.1270437  35.6993914   3.6600602  60.1126909  25.4909563   3.0909470
  60.8336020  24.8831582   2.9263294  59.7793055  25.7084918   2.2204505
  16.1898160  42.5394344  37.7820730  16.5864086  41.7491150  37.4155450
  16.8807065  43.1999540  37.7308965   9.9481255  50.1546192  38.2287192
  10.0788999  49.2463636  37.9563141   9.1476339  50.1344872  38.7531614
  66.4367723  49.7268963  13.9807570  66.2996006  49.1000223  14.6909952
  67.0425987  50.3724384  14.3447435   1.5650840  48.0076218  23.0631948
   0.9111922  47.6594257  23.6693430   1.2909360  47.6858568  22.2043920
  19.8737526  33.6017466  22.4615359  20.0109839  34.5478940  22.4145985
  20.6159735  33.2282090  21.9863391  29.0393710  63.0819082  58.5016870
  29.9286842  62.8361845  58.2467985  28.9230156  63.9628744  58.1458855
   9.1436154  48.2491112  22.4122953   8.4455782  48.8457012  22.6825905
   8.7550038  47.7286911  21.7091799   6.7913222  29.1970396  11.9442129
   6.5059364  29.3379354  12.8469503   6.8006659  30.0722051  11.5566134
  16.3011599  68.0861282  28.1981015  16.1790693  68.9815331  28.5136557
  15.7012439  67.5614595  28.7282443  70.7771635  34.3541741  49.2567873
  70.7088852  34.1174293  50.1817322  69.9013948  34.6617508  49.0230036
  13.0763519  68.3066034  59.9622440  13.1069314  69.1933060  60.3214884
  13.9610612  68.1515980  59.6313477  17.5962007  72.6890898  53.8155937
  17.3189533  72.2381020  54.6130753  18.4757996  73.0095816  54.0151501
  37.5039792  54.3513823  21.2568903  37.8557277  53.6675644  21.8268847
  37.9788756  55.1426888  21.5109324  16.3429976  58.9476871  66.5627098
  16.7189360  58.1877375  67.0069838  15.7262254  58.5756969  65.9322786
  21.4231873  42.6870108  12.1133876  22.2095799  43.0816555  11.7364597
  21.4125943  41.7952108  11.7658043  47.4216080  56.3857555  33.1093669
  47.1507454  56.3931417  32.1913195  46.8284702  57.0020247  33.5390520
  27.0727444  31.5654731  56.7440462  28.0129480  31.4028668  56.8202591
  26.8146062  31.1078095  55.9439611  46.2574720  39.8246789  62.4515057
  45.3394556  39.5648026  62.5285721  46.2838745  40.3832436  61.6746283
  31.1508393  23.8257265   1.3282114  30.4575586  24.4076443   1.6395977
  30.7476306  22.9576731   1.3164489  74.1147184  62.7455950  14.1279793
  74.0178823  63.6830187  13.9603734  74.2350245  62.6828671  15.0755155
  11.8896770  49.3409538  54.5299864  11.4299691  50.0857353  54.1424370
  12.2561848  48.8699389  53.7816191  31.5538263  73.5161734  52.7475691
  31.0695195  74.1077566  52.1716261  32.3815489  73.9674807  52.9131699
  28.7769103  24.1466475  17.5820649  28.4761024  23.3307910  17.1819103
  28.4189534  24.1243553  18.4695339  41.5927172  14.4687128  55.1475954
  42.2136927  14.4375837  54.4198227  41.2913656  15.3770387  55.1666307
  36.0243249   3.0526868  27.7447701  36.6480017   2.4311469  27.3693419
  36.0329962   2.8635016  28.6830473  13.9095306  79.3402576  29.5679808
  14.4088650  79.3926859  30.3829360  13.0470288  79.0228796  29.8355508
   4.5381624  68.2703543  41.5813208   4.3870270  69.1434479  41.2192440
   4.4561464  67.6822376  40.8305740  38.6739874  34.5808983  60.5017662
  38.7823749  34.4034171  59.5674276  37.8376079  35.0424385  60.5624437
  18.5459828  63.5642815  53.8999414  17.6421547  63.4049129  53.6280441
  18.8603938  64.2415333  53.3010197  29.6928239  66.3754749   6.5243691
  29.7372198  65.5186176   6.1000419  30.2555346  66.9364929   5.9906566
  26.3033605  66.4327049  57.2612953  26.2272286  66.1247730  58.1644106
  25.5997849  65.9818888  56.7944145  33.4330702   4.5560926  26.8973112
  34.2323470   4.1964096  27.2820401  33.1805539   5.2650356  27.4888086
  21.3741398   3.4101894  50.0138092  21.0892820   2.8074729  50.7007027
  20.6121325   3.4981817  49.4412470  75.8713913  65.3327751  27.8077507
  75.1915359  65.9439945  28.0913782  75.4404497  64.7814083  27.1546721
  28.9319873  63.7743855  36.8105769  29.1985393  63.0005264  36.3142657
  29.4736552  64.4817066  36.4605474  44.1908741   7.2425228  69.9405622
  44.6486712   6.9730842  70.7368374  44.6648216   8.0190611  69.6429157
  72.6106405  75.4869366  47.3736048  71.9363260  75.6146479  46.7063618
  73.4298658  75.4415703  46.8806076  84.0394747  24.5295666   0.4536431
  83.8527453  23.9759825  -0.3045852  83.5257542  24.1445397   1.1636298
   9.1087627  63.9563704   4.0658817   8.6592174  63.7739801   3.2407302
   9.7385693  63.2415390   4.1586044  79.1854000  77.7011633  48.7955141
  78.5238123  77.6594210  48.1050110  78.6938095  77.9282808  49.5848131
  47.0859718  67.1429968  36.1493111  46.3099384  66.7462301  35.7536054
  47.2538662  66.6143847  36.9294477   2.3937479  80.3633213  42.9412365
   2.7423698  81.2347794  42.7534914   2.7148920  80.1610947  43.8199854
   5.5048954  72.7412128  36.5519905   4.8463032  73.1030178  37.1449351
   6.3402790  72.9220057  36.9828963  63.7133694  12.4184918  66.6645098
  64.3012762  12.0420098  66.0096359  64.2728281  12.5793695  67.4243498
  22.3936963  20.2053285  58.0386925  22.1246386  20.0733995  58.9477730
  23.1732249  19.6590567  57.9379368  82.2852325  66.8718004  45.9226608
  81.4031124  67.1756840  46.1365414  82.8242207  67.6623440  45.9504986
  11.6732919  19.0363431  22.1776676  12.5497663  18.9340353  21.8067813
  11.7205155  18.5993052  23.0279613   1.0644409  57.3146296   7.9188985
   1.6574402  57.9043198   7.4532312   1.6136840  56.5721226   8.1703877
  81.8472515   9.2776634  70.4510434  81.9542013   9.5438577  69.5378438
  82.0882426   8.3513452  70.4602995   7.5714827  57.4540615  31.0159874
   6.8650675  56.8189144  31.1334562   7.5545317  57.9815626  31.8145418
  78.2540321  81.0356045  13.2493699  78.7508488  81.5947628  13.8466501
  78.3082533  81.4807415  12.4037051  66.6377687   1.2984611  20.3566074
  67.1823692   1.8892965  20.8767533  66.3488960   0.6298877  20.9777331
  52.5274944  36.8841910  18.0523276  53.0098057  37.2088361  17.2919214
  52.4434948  35.9431291  17.8987753  42.3257303  80.3532982  33.4709024
  42.2523022  80.3946972  32.5174212  41.5989161  80.8879185  33.7905335
  37.0488906   7.8304237  41.8716192  37.2772074   8.1563711  42.7421761
  36.1013889   7.6989317  41.9059992  21.3599849  66.6660643  58.7020493
  20.6631517  66.3003016  59.2469072  21.3244295  66.1555767  57.8931141
  46.8325138  39.6562648  16.9906187  46.7565012  39.2945337  17.8735709
  46.2225103  39.1377020  16.4660060  77.3343277  68.3040047  49.1183424
  78.2170057  68.5877275  48.8804150  77.4683094  67.5000763  49.6203184
  84.3113136  53.0044985  23.5603046  84.8437119  52.3313904  23.9842248
  83.4470463  52.6035118  23.4682178  59.1296530  39.9572706  66.1126328
  59.0660191  39.8412251  67.0606375  58.9898920  40.8943224  65.9761190
   8.6390460  68.3938885  45.1592684   9.1869712  68.3388901  45.9422016
   7.7631050  68.5876322  45.4930687  72.7319622  40.8867311  12.0213556
  71.8627310  41.0542488  12.3855102  73.3226109  40.9516668  12.7717865
  22.3912144  57.2180414  59.4714499  22.6903558  57.7412271  58.7277937
  22.0071840  57.8553343  60.0736189  30.5130172   8.1759083  32.3831248
  29.9602365   8.4813547  31.6638422  31.3938618   8.1410718  32.0101237
  20.4869986  73.6002827  38.8356733  19.6884227  73.6681843  39.3590236
  20.4353976  72.7342606  38.4312296  57.7354574  48.5564375  44.9171686
  58.4538412  48.8980961  44.3847942  58.1612158  48.2166052  45.7042360
   6.9195408  66.0298443  67.5368214   6.7641371  65.0878334  67.4682999
   7.7773869  66.1610746  67.1329546  20.6848741  69.6062708  15.5955541
  19.9851263  69.1439724  15.1341844  20.5783129  70.5216646  15.3368473
  40.3521061   5.8917898  40.6008291  40.4164839   5.9238702  39.6463346
  40.7592821   5.0593257  40.8405018  78.3887529  48.6377192  59.4197845
  79.1699886  48.2336426  59.0421343  77.7077579  47.9708576  59.3316269
  65.1160622  27.9193830  44.9101639  64.2698288  27.7138996  44.5128059
  65.6163168  27.1061325  44.8423147   3.8521224  74.0105486   7.0041364
   3.0454221  74.4245911   7.3107874   4.3540803  73.8439417   7.8019536
   8.9265084  30.7144952  34.4264126   8.6823851  30.1689053  33.6787724
   9.8464024  30.9312057  34.2745447  15.9204936  13.1521785  23.5591912
  15.8500350  12.3129475  24.0141177  16.7166948  13.5496414  23.9117789
   9.5387852  39.1062117  16.6135597   8.7392974  39.5994949  16.7972016
   9.2412376  38.2046723  16.4914072  65.0833464  18.7127197  54.2500830
  65.9588671  18.9623237  53.9544725  65.2388382  18.0957758  54.9652290
  19.2966127  69.6858978  41.1596012  19.8517060  69.1999722  41.7695045
  18.8215935  69.0093613  40.6770182  32.3576236  75.3780270  37.5987840
  31.5393710  75.3522253  37.1027732  32.0989585  75.6713390  38.4724498
  45.3504324  78.7065363   2.6434714  46.0782433  79.2462921   2.3349503
  45.7204819  77.8271818   2.7210966  77.0456553  69.6208334  45.7756996
  77.6086855  69.7913980  46.5307713  77.6487827  69.3500137  45.0835133
   1.4641374  67.8277588   4.9482164   1.4584674  67.1854305   4.2385602
   1.0377882  68.5997009   4.5759755   5.1854759   1.2510809   7.7703398
   4.6328998   1.2847045   8.5512120   5.9774119   0.7960615   8.0567425
  70.3648424  53.7980604  38.4028411  71.1840391  53.3258438  38.5516977
  70.1768637  54.2215014  39.2404532   4.1649216  52.9132414  33.1515384
   3.8350320  53.2655430  32.3249245   4.2950407  51.9806623  32.9794955
  21.6795897  32.2640657   7.4376607  21.6934967  31.3101244   7.3599821
  21.0746765  32.5512719   6.7536849  74.0214300  74.1713667  20.9014249
  73.8250399  74.4165087  21.8056202  74.4624758  74.9381828  20.5357695
  43.7049198   7.1379024  43.4887123  44.1330004   7.8073937  42.9550791
  43.2316494   7.6317757  44.1582870  57.9745483  70.1279831  25.7838655
  58.4020662  69.9536467  26.6223526  58.6665392  70.4954815  25.2340269
  50.9312057  51.4111185  31.1297917  51.0603619  52.1147537  31.7657542
  49.9821138  51.3631868  31.0150814   7.2379845  58.5015440  38.0538106
   7.1640557  59.1856861  38.7191796   7.8945851  58.8331032  37.4412918
  78.3034515   7.5373226  40.8032084  78.8261127   6.8432212  41.2048054
  78.5685492   7.5350803  39.8834538  27.9839420  65.8814096  23.0818772
  28.0369925  65.6273937  22.1605229  27.6882029  66.7915726  23.0627489
  30.8325601  14.7243321  51.1070347  31.1551833  14.1035271  51.7602921
  30.9630346  14.2799473  50.2693415   5.1556301  38.3541083  34.0362597
   4.2505169  38.5636806  33.8058639   5.4649669  37.8045273  33.3161879
  27.6233149  39.1721797  17.0323837  27.1461725  38.8272953  17.7871180
  27.8920579  38.3945632  16.5431786  85.9793091  39.9390340  45.8740282
  86.7346478  40.4814529  46.1008978  85.5988026  40.3670359  45.1070452
  30.1211929  68.9953279  27.7134275  30.5072522  69.8349285  27.4639082
  29.4616795  69.2205286  28.3695984  23.0088592  50.9551525  61.9916296
  23.9322877  50.7358742  62.1158409  22.5454354  50.1298237  62.1341181
  32.0870352  78.5646582   3.7042630  32.3632860  78.2433748   2.8459540
  32.8691268  78.9800453   4.0676036   5.9418815  54.5602608  68.4191465
   5.7498586  53.7148190  68.0134535   5.3725141  55.1797533  67.9627657
   5.4637057   4.1204649  61.7448807   4.7129002   3.5290039  61.7968082
   6.1957091   3.5568744  61.4943409   0.2924453  63.5158825  45.5724382
   1.0102203  63.2503748  46.1473608   0.6682412  64.2026567  45.0216627
  84.3272591  77.1916866  27.3936796  84.3991947  78.0864573  27.7260065
  85.1426029  76.7694521  27.6641464  14.2837429   4.8510933  13.5700202
  14.3251395   5.7863194  13.7696958  14.2527723   4.8114094  12.6141441
  44.8595428  38.8049126  52.2364998  44.4469738  37.9855466  52.5097466
  45.4131985  39.0528536  52.9769182   0.7541781  47.7978468  51.4469433
   0.2312373  47.3192692  50.8037233   1.5470198  47.2715902  51.5503359
  68.4772656  36.6488840  70.3853914  69.1611896  37.3184778  70.3740703
  68.8502214  35.9342863  70.9016101  42.0555449  54.2542553   9.2822361
  42.6666832  53.6176395   8.9114791  41.2269020  54.0784979   8.8364869
  39.6997881  69.6988153  20.7909799  38.7907434  69.8393250  20.5261636
  39.7078896  68.8158083  21.1603904  86.7169776  66.2801552  11.2634051
  86.7410837  65.3318882  11.1351860  85.7950533  66.4758682  11.4306891
   4.8461857  74.4056511  23.0878568   4.3846294  73.9281416  23.7771940
   4.1935971  74.5189857  22.3968315  33.6779284  79.3830824  39.8941851
  34.2274046  80.1435852  40.0837564  34.0265536  79.0342331  39.0738201
  24.7674990  78.6024952  42.1116829  24.7615385  79.5209980  42.3810434
  24.1696000  78.1701851  42.7214813  38.6833262  79.6149540  17.1786523
  37.7473998  79.5716619  17.3746133  38.9533329  78.7003326  17.0962369
  82.7174282  43.2648468  31.5576196  83.1875992  42.6957512  32.1669626
  81.8066502  42.9758787  31.6142583  15.4756844  72.9133606  11.8250358
  14.9899960  73.3135700  11.1038077  14.9024796  73.0143404  12.5849509
  73.2985449  30.9602261  35.0910783  72.6977253  31.2276888  35.7865739
  73.8418674  30.2816367  35.4917645  35.9548569  63.5232735  41.8774605
  35.1053619  63.8933277  41.6373587  36.2741899  63.1147528  41.0728693
  67.7215099   2.6052967  64.1640615  68.1198549   1.7420721  64.2753983
  68.2001543   3.1700248  64.7708654   9.3607765  41.9081879  38.0442643
   9.9879247  41.4955044  38.6380696   8.5149336  41.5348434  38.2920432
  36.9624519   1.8357752  41.3552094  37.4519897   2.3568602  40.7187700
  36.1551404   1.5975675  40.8994293   6.6072363  75.5252314  49.5160151
   6.9624054  75.5148935  48.6272097   6.8033743  74.6547461  49.8624563
  85.2011013  76.7231703   1.6921999  84.9603271  76.9776011   0.8014005
  84.8394394  75.8430195   1.7959347  11.1154974  70.1966190  30.1623845
  11.0439360  70.8511877  29.4676542  10.2649772  69.7574902  30.1662540
  73.6184311  27.1890759   9.2890573  72.8611803  27.7377105   9.4935125
  74.1202927  27.1603274  10.1036382  46.4989471  17.5455880   8.9256477
  47.1231890  17.6237702   8.2042342  45.6406879  17.5564790   8.5019648
  61.5962839  24.7222257  50.3640652  60.7005405  24.4009089  50.2609682
  61.7322111  25.2981997  49.6117306  29.4359326  40.3542185  21.2441564
  29.4970560  40.6577396  22.1498966  29.5978117  41.1371136  20.7177544
  13.0117488  73.7199783  46.9857025  13.1211376  72.8311539  46.6476774
  12.8442192  73.6017227  47.9206800  45.3490543   4.6631607  54.6246004
  45.9610748   4.0245593  54.9904585  44.4901657   4.3773034  54.9357748
   8.7014389  40.9492683  59.7952557   8.1242263  40.8888292  59.0340710
   8.6656344  40.0792074  60.1926756  23.2353950  57.1959829  47.2388506
  24.0063548  56.6310358  47.1870184  23.5524893  57.9960823  47.6578093
  65.4338026  21.1391592   1.1854635  65.6745958  20.9724474   2.0967579
  64.9297667  20.3678989   0.9259747  18.2209933  64.0974283  51.2180233
  18.2288229  64.9664116  50.8167267  18.6980116  63.5438108  50.5998039
  34.4743776  60.6309032  40.3401184  34.9432349  59.9827290  39.8145008
  35.0721645  60.8334637  41.0597372  41.3290310  60.9150553  20.7877851
  41.4113474  61.6076279  20.1321912  41.5541744  61.3404751  21.6151667
  25.0489783  67.3666239  49.2072010  25.3794074  67.7496576  48.3945894
  25.4224896  67.9129696  49.8987389  30.1113725  80.8670425  64.7991705
  29.4742656  80.2666283  65.1862526  30.9392929  80.3873730  64.8255539
  47.5399733  11.1175096  55.7289505  46.7407322  11.6420639  55.6811094
  47.3226976  10.3073382  55.2678156  64.7508526   7.2352540  32.2737384
  65.0494576   7.7304399  31.5109444  64.2698145   6.4943838  31.9050312
  56.1994028  19.8362637  17.4953163  56.5774298  20.7064605  17.6221311
  55.9318733  19.8229444  16.5763593  15.2019048  25.0380564  57.8931093
  15.0280595  25.6287479  57.1602440  14.4578803  25.1620984  58.4824085
  46.0961533   6.1400795  13.1501877  46.5383434   6.4764738  12.3707390
  45.1739120   6.3579595  13.0151558  85.3109455  25.1517653   9.9348688
  84.5681286  25.3859949   9.3784559  85.5619049  25.9730721  10.3576040
  16.3584530  66.2146425  43.8572788  15.5618382  65.9806538  44.3336010
  16.0484195  66.5010929  42.9981756  17.8433645  66.8564129  47.5306988
  18.6271429  66.3793135  47.2581196  17.6883006  67.4850082  46.8256760
  75.7455206  32.5056911   9.6172404  75.1444244  33.2451248   9.7075170
  76.4794540  32.7220535  10.1923585  31.1767626  74.8438931  45.4223204
  31.9849300  74.6233797  45.8854294  30.9078431  75.6830454  45.7961273
  10.9081817  77.8590155  47.0138359  10.6445706  78.0844212  47.9059887
  11.6555655  77.2716093  47.1261120  43.6731577   2.9139799  14.8148823
  44.2977571   3.4366092  15.3178430  43.8343382   3.1594425  13.9038384
  37.0136166  76.4254093   8.4271449  37.2357440  76.1421871   7.5401974
  37.3908997  75.7533026   8.9947355   6.2788218  34.3929815  15.9190559
   6.9727927  33.9314294  15.4483056   6.5492892  35.3110623  15.9046423
  74.6760798   2.2306904  68.8325548  74.4272280   2.6706636  68.0197048
  74.1150093   2.6254866  69.5000601  18.1249607  78.5706234  10.2242053
  17.2389472  78.9232206  10.1412106  18.0667615  77.6880407   9.8582858
  29.5885468   3.9125293  30.8385730  29.6246147   3.6346349  29.9233103
  29.6667457   4.8658547  30.8026910  58.8884878  54.5138645  21.7386603
  58.0168533  54.9080229  21.7051530  58.8180113  53.7300491  21.1937714
  71.0829020  78.3350277   7.6919484  71.8107271  78.9531755   7.7582580
  71.4994669  77.4732351   7.6960081  16.9978273  27.2824740  44.9089193
  16.6332138  26.3979101  44.9378586  16.5015054  27.7236819  44.2195511
  46.7066622   3.8822180  47.6348305  47.5066805   3.3782899  47.7840328
  46.5086699   3.7484121  46.7079401  33.3171058  50.8027315  18.9742029
  33.1839848  49.8566103  19.0322578  34.2131639  50.8991814  18.6517000
  80.0916672  13.5647154  48.4259033  80.3126144  14.0090513  49.2444277
  80.2807713  12.6418781  48.5957289  27.6919675   5.4049003  40.6336403
  27.6513886   6.3497007  40.4855299  26.9575715   5.0519556  40.1313257
  30.7754230  61.0418653  30.9432006  31.6560626  61.3371325  31.1745501
  30.6900573  60.1878929  31.3670802  24.8901153  51.7923307  23.9910746
  25.4553890  51.0214758  23.9412451  25.4962587  52.5294352  24.0652013
  12.5304389  72.5758553  57.7151346  12.8258026  73.4834433  57.7877665
  11.5971768  72.6101685  57.9250813  53.5681677  19.0644395  43.4479904
  52.6984215  19.4528043  43.3534098  54.1713476  19.7634077  43.1953049
  31.0613322  81.7617989  51.8344545  30.2464104  81.4117050  52.1944094
  31.2559819  81.1956501  51.0875797  25.3549671  59.0644264  24.5747828
  24.7778416  59.0982437  23.8118863  24.8804569  58.5287809  25.2105165
  22.3821473  72.1288204  46.9493580  22.2107983  71.2003231  47.1067142
  22.4466515  72.5120783  47.8241062  54.6792746  64.8641491  52.4311924
  54.1816950  64.2719221  52.9950333  55.4485321  64.3573523  52.1711302
  63.4391689   6.9825292  59.4336462  62.6373434   7.3595154  59.7958469
  63.1556606   6.1654365  59.0235090  41.5624189  11.5558004  29.8092341
  41.6572905  12.0708358  29.0080023  41.4334440  10.6581080  29.5030570
  44.3969154  75.2816820  18.2875073  44.9333096  75.1491070  17.5058842
  43.8527203  74.4960213  18.3406198   4.2836967  70.2445269  48.0732393
   3.7745041  69.4695950  48.3108091   3.6492473  70.9611464  48.0859232
  17.1232116  70.5244350  26.1106110  16.5231431  69.7827530  26.0327983
  17.3155308  70.7728052  25.2064204  23.3978677  61.0252237  42.5904608
  22.8062963  60.8360720  41.8621063  23.5310578  60.1786709  43.0168915
  68.2652903  53.9198637  47.3909187  67.5989532  54.5643473  47.1524525
  69.0677834  54.2419672  46.9804573  55.1456833  15.3641570  27.5038075
  54.7990465  14.4973218  27.7151632  54.3692350  15.8982623  27.3361993
  24.0817904  79.5084286  35.7376885  24.8607612  79.5289755  36.2935781
  23.4177494  79.0726519  36.2719011  82.8209591  39.2976737  10.4039383
  82.9033852  39.2406869   9.4519985  83.1453609  40.1717901  10.6205344
  71.7508316  30.0824833  24.9178505  71.6154289  30.8552909  24.3695188
  72.2125959  29.4645929  24.3510890  17.5145853  58.3345842  22.7269864
  17.9193377  58.4372473  23.5883045  16.7241240  57.8210831  22.8934741
  60.8371973   7.6027471  48.5301828  60.3376245   8.2876450  48.0856895
  61.4984369   7.3358959  47.8916073  51.0333586  58.6787891  19.0024817
  51.9034481  58.3326340  18.8041162  50.4328871  58.1032181  18.5287893
  44.4015312   4.8992240  60.7345390  45.1166439   5.4058784  60.3496361
  43.7619972   4.8123762  60.0276566  19.8482287  58.9706945  56.5161657
  19.0221763  58.6727333  56.8970680  20.3131366  58.1645870  56.2919235
  44.6065378  73.1003428  62.6918411  44.4589567  72.2610521  63.1277847
  44.9086285  72.8647470  61.8146420  24.7619295  63.5259581  20.3995109
  25.1748037  64.3821001  20.2864432  24.0404463  63.6864376  21.0077381
   5.1858234  16.6158938  39.6986341   5.8537591  16.7703068  40.3666544
   4.3607840  16.6013277  40.1837397  58.0796766  64.2117882  17.6946044
  57.4236393  63.5896206  18.0088496  58.8473797  63.6734915  17.5019729
  18.8659918  72.3522139  40.5704403  18.9081264  71.4241076  40.8008289
  17.9987121  72.4631596  40.1808977  35.3220415   5.2588665  47.6708841
  35.6352091   4.4896966  47.1949244  35.0624895   5.8750856  46.9859457
  27.5076437  21.3517475  10.4694343  27.8514910  20.8253860  11.1911988
  27.2121668  20.7094550   9.8241556  40.4132557  10.2690947  31.9348693
  40.9074259  11.0294008  31.6283345  40.9365606   9.9178928  32.6553154
  73.6379051  33.8516760   4.9831864  73.4987640  34.2489839   4.1235250
  73.1926537  33.0059433   4.9310717  11.6276479  80.2778244  53.9918756
  11.9758379  80.6760216  53.1941080  10.6777978  80.2994442  53.8754797
  15.2142143  61.3151979  67.7408838  14.6057165  61.0264254  68.4210110
  15.5807149  60.5046082  67.3875380  56.0599756  60.3884459  13.3722270
  56.5782547  59.6859598  12.9796314  56.2012959  61.1404657  12.7971339
  65.8428431  22.1805263  22.8959322  65.1265144  21.7405486  23.3536744
  66.6192150  21.9824052  23.4195995  56.1671829   7.1288794  38.3600450
  56.6777086   7.2408938  37.5581455  55.2838278   7.4112380  38.1229997
   0.9483021  14.5956790  67.8691244   0.8328712  13.6466742  67.8212023
   0.2750987  14.8881161  68.4835434  53.9690065  80.8385563  20.9375620
  53.5737181  80.0304317  20.6105876  54.8894072  80.6156635  21.0769033
   4.3078440  45.9134245   7.0285481   4.8257574  46.7094994   7.1479839
   4.7037938  45.4813862   6.2717140  38.4920716  79.4374609  53.6277771
  39.1458654  79.2261982  54.2942238  39.0027618  79.6033907  52.8353786
   8.2334107  53.6235237   4.3795812   7.7531195  54.4175863   4.1450202
   7.7249068  52.9121971   3.9901379  18.8448918  74.2752934  55.7286501
  17.9981685  73.8370371  55.8136272  19.4677842  73.6741829  56.1371899
  37.4182987  20.3174686  22.2265887  37.4189425  20.0517511  21.3070083
  36.7498565  21.0006762  22.2780156  26.1412859  69.0411091  50.9519243
  25.6739545  69.7585058  51.3799143  27.0667791  69.2614937  51.0574102
  16.7492175  72.0631027  63.8050270  17.5738931  72.0792866  63.3193493
  16.8783522  71.3907051  64.4739342  23.1391788  60.9046173  37.4556422
  23.0942082  61.1687279  38.3745837  24.0729785  60.9242630  37.2462082
  66.7572069  25.5379963  23.0496931  66.1283016  25.7764101  22.3686123
  67.4866724  25.1410127  22.5737596  47.2357607   7.0679897  35.3284144
  46.6102457   6.3477612  35.4073358  47.2088861   7.3081559  34.4022226
  52.5739765  18.8521338  31.3256764  52.7427292  19.6344662  30.8005953
  53.1251812  18.1758773  30.9318733  51.7514277  72.9130220  23.6318350
  52.2220755  72.1446991  23.3087206  51.2732124  73.2390881  22.8694582
  75.7975864  76.8809748  31.2374830  76.0287094  76.2741041  31.9407058
  76.6279840  77.2871208  30.9890461   1.9439749  68.1179428  15.9102309
   2.0816930  67.3496866  15.3561127   1.1133628  67.9472017  16.3542604
   5.2968162  17.9183006  49.7418118   4.9829006  18.0128598  50.6411171
   6.1214203  17.4394190  49.8250771   2.0273960  55.6103230   2.5475037
   2.7695256  56.1400509   2.2561941   1.9380599  55.8145952   3.4783757
  29.5069170  78.5140324  23.6086130  29.5130396  77.9341936  24.3701792
  28.8336635  79.1645050  23.8082385  73.9700747  67.0814466  28.6790395
  74.4956636  67.0706606  29.4789577  73.8169575  68.0102634  28.5055637
   7.4805027  58.5030651  28.5850930   7.4098462  57.6846123  28.0937910
   7.5361419  58.2288790  29.5004916  64.4032240  14.3001437  52.4065208
  64.0886068  15.1189554  52.0233822  65.3387594  14.4455600  52.5474453
  57.8882408  69.3086243  63.8468361  57.5632286  70.0718737  63.3692980
  57.3044872  68.5963535  63.5858011  16.8089390   8.1420922   7.1466416
  16.4595294   8.2555085   8.0305433  16.6622984   7.2172922   6.9479644
  51.9248009  17.0432913  51.0498905  51.9255018  17.8522122  51.5616322
  52.0480108  17.3318577  50.1455784  57.5186110  24.6050239  55.8058214
  57.1697235  25.3613949  55.3342152  58.1543922  24.2193723  55.2030945
  55.9512663  63.9688349  26.4682794  56.3052464  64.4135141  27.2384691
  56.1627150  63.0455685  26.6064906  13.2919109  62.2633934  41.7668343
  13.6963415  62.4113894  40.9119844  14.0093267  61.9566774  42.3213339
  61.0640717  11.7769897  56.3939571  60.8531332  12.6685333  56.1166716
  61.9292068  11.8498874  56.7970133  34.0152764  61.4870453  31.1264229
  34.0569043  60.6485224  30.6666636  33.7519312  62.1158123  30.4544616
   8.0125248   6.7458004  70.1245260   8.6546171   7.4463499  70.2393293
   7.9850262   6.5986782  69.1791010   6.8820071  55.9797716  17.6741064
   7.0054173  56.0642815  16.7286646   6.4514303  55.1320553  17.7846181
  50.0841141  66.2364054  53.1960011  50.8113527  65.7193136  52.8496265
  50.4991341  66.8752432  53.7755537  58.9779311   0.0251007  41.2494183
  59.6339804   0.4115391  41.8295002  58.2465416  -0.1934338  41.8269539
  39.3763518  76.1624384  22.7447605  38.9459991  76.3034916  21.9014740
  40.2774620  76.4537144  22.6054859  83.8534737  48.7273598  67.7487469
  84.3025780  48.9388227  66.9303226  84.3265247  49.2236519  68.4166861
  31.3837242   1.3812482  38.2448721  31.6882420   0.7540989  37.5889874
  31.3412237   0.8766615  39.0571642   1.3931954   4.5485607  22.9519391
   0.5037651   4.7147024  23.2642579   1.2956543   4.4201159  22.0084262
  19.3632925  67.3660612  27.3864627  18.4785366  67.1493483  27.0923948
  19.3436670  67.2205782  28.3323383  83.6543560  73.6594534  19.1140330
  83.0245209  74.3746376  19.0243340  83.1792831  72.9806280  19.5933461
  37.6456285  79.4649076  67.3673010  38.5037565  79.8883247  67.3435068
  37.6447248  78.8825893  66.6076088  64.9399137  81.1166191  48.0424356
  65.8213091  81.4871788  48.0878162  64.4254875  81.7781734  47.5798988
  80.3152657  51.8777847  39.1949344  81.1792088  51.7738581  39.5937276
  80.0692177  50.9937191  38.9226842  71.3306808  17.9664600  48.8536692
  72.0896673  17.9587638  49.4368601  71.6526842  18.3683324  48.0467939
  63.9881134  11.7124617  57.3564386  64.4064093  12.1032727  56.5892887
  64.1529274  10.7738113  57.2669792  61.8076897  25.9773016  22.6666141
  61.9932652  26.5386677  21.9138455  60.8535910  25.9013295  22.6793027
  56.1478424  21.6321516  31.0982919  56.9579268  21.7728353  31.5883994
  55.5767393  22.3514009  31.3680196   8.2532251  52.4581814  68.8014126
   9.1701943  52.2221184  68.6611557   8.1413406  53.2793379  68.3224392
  69.7398472  17.5458992  25.4620576  69.7102928  16.9025612  24.7539091
  70.2434587  17.1173441  26.1541176  54.9362087  13.6126530  39.9612260
  54.1214561  13.8223648  39.5046878  55.4813623  13.1911337  39.2968750
  70.0772762  25.4891276  54.8186922  69.2478275  25.5196476  54.3419170
  70.0724602  24.6363139  55.2533340  74.7686434  58.2831192  63.7260342
  74.8565960  58.2169724  64.6768856  73.8809633  58.6144352  63.5900784
  26.3066053  11.4600503  13.1536555  26.6213226  10.8631933  12.4747252
  26.3330364  10.9425879  13.9584947  14.3722856  37.0874023  56.9574785
  14.6131647  36.7002439  57.7990913  15.0499642  37.7430224  56.7927122
  15.9309828  12.9346538  18.5395861  15.5163860  13.2590687  17.7401507
  16.1956024  13.7252080  19.0099394  59.4505405   5.3128505  39.8608708
  59.8627663   4.5811850  40.3201818  58.7551260   5.6044888  40.4504299
  79.0910006  19.3531954   9.1515929  78.8267040  18.5400176   9.5818478
  78.3178568  19.9149525   9.2055339  81.4614105  21.1826038  37.3311043
  81.5593529  20.2869320  37.6542330  82.2911835  21.3711548  36.8927407
  20.3562307   9.7421181  29.2285752  20.8453798  10.3798985  28.7087655
  20.9417129   8.9877790  29.2950296  41.5291119  69.3451834  30.8507419
  40.7958889  69.6379042  31.3919783  42.0631123  70.1297712  30.7262397
  68.2685709  69.8158646  54.5065498  67.5668669  69.3640709  54.9752998
  68.5982990  70.4606247  55.1324844  85.5426788  11.2637413  40.5872154
  85.9809303  12.0534360  40.9043169  86.0376740  11.0117590  39.8076534
  10.9710371  10.3365481  24.9796748  10.9392738   9.9319607  25.8465838
  11.3409531   9.6596891  24.4128799  19.3805659  36.3931465  61.4651918
  18.5789537  36.5332961  60.9611988  19.0795553  36.0284400  62.2974253
  17.1867490   0.7142594  53.4933662  16.6468060   0.2438375  52.8582335
  17.9917693   0.1996359  53.5511303  27.3144746  13.3535922  49.8917103
  26.7922306  12.9519486  49.1973209  27.5146079  12.6324463  50.4884768
  81.1671448  73.6762810  39.1079164  81.4483929  72.7613401  39.1049290
  80.2897549  73.6583996  38.7256885  22.1003819  49.5031500  20.8295178
  22.2304773  49.7372580  21.7484856  21.1515331  49.4185257  20.7359266
  46.9485092  43.7510490   2.3197579  46.3326931  44.3520927   2.7389842
  46.4218855  43.2809544   1.6732985  81.2225056   3.7186190  55.8584547
  81.9110870   3.0537349  55.8625984  81.1051750   3.9476618  56.7804098
  75.9304237   2.6013425  64.3130159  75.8121014   3.2994226  64.9571562
  76.5310907   1.9863282  64.7339535  11.7892718   4.2203066  45.4298067
  11.6717958   5.1689923  45.4790688  11.8151212   3.9344305  46.3429546
   4.3589526  18.0396557  24.0305924   4.4183433  17.6317012  23.1667185
   4.0764061  18.9367759  23.8528991  65.6574106  68.4765911  50.1063919
  65.3217936  68.4105253  49.2123938  65.2928305  69.2967224  50.4391003
  35.5253410   5.3776467   1.8422386  34.5685625   5.3650504   1.8677618
  35.7750154   4.4568345   1.7647813   9.0789235  22.1548176  55.7961798
   8.8310432  21.4396143  56.3820744   9.6456540  22.7141380  56.3274145
  66.9340897  78.2041216  31.8921733  66.5902853  77.8073978  32.6925755
  67.7181196  77.6937580  31.6895485  64.3477154  13.1926680  15.8943510
  64.5796585  14.0535343  16.2426937  63.8124990  12.7931106  16.5800095
  56.6812658  57.0208788  61.6757870  57.5719309  56.9316006  62.0148611
  56.5214968  57.9646158  61.6678190  47.1264124   9.1339558   9.2745405
  47.4608517   9.5054954   8.4582454  46.6549635   9.8556060   9.6907008
  29.5780897  36.4773703  16.4097488  30.5066109  36.2497282  16.3622141
  29.1492271  35.6737733  16.7039251  40.7592726  16.8051302  55.6107998
  40.8823204  17.4237144  56.3308334  39.8166084  16.6396296  55.5956745
  21.0038996  21.4122915  45.7645273  21.0212350  22.2885895  45.3797722
  21.7999983  20.9920621  45.4391527  14.4094336  22.5637388  11.2486541
  14.4069767  22.1756697  10.3736532  15.3367865  22.6563025  11.4670110
  10.9630728  35.4374599  38.6705518  10.4906225  36.2143660  38.9696193
  11.2143981  34.9851990  39.4758630  77.6482582  46.6664267  17.1631813
  77.8118706  47.5736332  17.4209332  77.2623110  46.7315054  16.2896585
  35.3435683  11.0993028   8.8614661  36.2047410  10.9410214   8.4747392
  34.7347522  10.6310785   8.2902020  64.6394348  42.7622080  65.5212641
  65.1716900  43.2380390  64.8836756  64.8363924  41.8400002  65.3570175
  15.6704521  11.6356468  37.5009131  16.0105360  11.5830433  38.3941150
  14.9264634  11.0334575  37.4920464   8.5703653  33.6346507  18.7694931
   7.9394585  33.8735461  19.4485497   9.0653747  34.4380713  18.6091387
  37.3811865  28.3840942  22.9597473  37.2075891  27.6959491  22.3174429
  36.9414997  29.1576123  22.6067948  19.2068553   1.2762909  47.5733757
  18.8696492   0.5735363  47.0178032  20.1210165   1.3744058  47.3070765
  16.9964504   4.2067143  26.3243437  17.0344579   5.0895220  25.9563255
  17.9126072   3.9420217  26.4069724  29.0245795  47.1612072   7.8236187
  29.1848159  48.0908442   7.9858953  28.8609815  47.1071529   6.8820536
  55.4035473  12.4112940  58.9225149  55.5360746  13.3497834  59.0563250
  56.0632992  12.1663487  58.2736969   6.5987122  32.1929717  50.9294701
   5.8529639  31.9882298  51.4935350   6.2263197  32.7186370  50.2214909
  81.7513180  50.7684565  25.9496784  82.6935673  50.8206654  26.1098981
  81.3691139  51.3975954  26.5615058  31.0101151   9.8341674  53.7714434
  31.3018942   9.3433189  53.0032206  30.3169417   9.2944223  54.1514635
   0.0463823  15.9165275  53.6863518   0.6605101  16.2224472  53.0188990
   0.5398982  15.2659106  54.1857243  39.5390511  30.9135485  21.1915350
  39.4695497  31.8614006  21.3054490  38.6603642  30.6387258  20.9295893
  68.2836342  47.0557928  41.2249947  67.9042816  46.1807919  41.1431789
  67.5277090  47.6409245  41.2742710  74.2544603  41.7293787  38.1491065
  74.6440792  42.5949860  38.2722044  73.6640787  41.6241598  38.8951707
  73.2707644  48.7843370  46.0532618  72.6064682  49.3998051  45.7431984
  73.5246992  48.2925034  45.2723312   3.4939653  22.8826571  20.1695943
   3.2403472  23.7575769  20.4635763   4.3889606  22.7722120  20.4905558
   2.3120989  71.3726664  17.2408438   1.4222912  71.7120266  17.1443629
   2.5435913  71.0558510  16.3677621  66.7788887  20.3290057  36.1003709
  67.7045631  20.3853488  36.3374019  66.3126755  20.6153870  36.8857765
  64.3190098  39.3735361  62.0070553  64.2377520  38.5843778  61.4714670
  63.8990116  40.0594902  61.4881182  67.4721622  26.0096383  41.5689850
  67.5949478  25.1065183  41.2765265  67.1144724  25.9285498  42.4531317
  83.2769203  27.5947738  26.9004512  83.4190845  28.0340433  26.0619617
  84.0348530  27.8402996  27.4310040  17.2124434  73.7917757  29.1678381
  16.3579619  73.4003830  29.3492341  17.3638892  74.3871212  29.9019122
  63.5949039  17.2132742  33.2444358  64.2907619  17.2188020  33.9016867
  63.4909344  18.1323361  32.9979634  39.1412997  20.3972745  27.8956914
  38.8109636  19.9371481  27.1240735  38.6533046  20.0191498  28.6272049
  29.0172219  43.2828569  41.5423965  29.7293162  43.4445763  42.1612644
  29.0027118  42.3315620  41.4372301  68.8364267  27.1546555  30.0126076
  69.7428942  27.0146585  30.2863860  68.8339901  26.9485044  29.0778732
  64.8568487   3.5321608  18.4144640  64.3317270   4.3324262  18.4220302
  64.5710087   3.0507764  19.1908634   2.5509807  11.6262782  10.9138751
   2.4739361  10.9983826  11.6322374   2.0704672  11.2231302  10.1908183
  55.4251480  23.9077306  28.0785370  55.6595564  24.4355273  27.3151779
  56.2588549  23.7366748  28.5166073  82.6950550  24.0343022  29.1814017
  82.0988750  23.2905912  29.2691064  82.5021553  24.5865512  29.9390578
  77.3197174  33.0516243  57.8050423  77.8605270  33.0829072  57.0158768
  77.8097725  32.4939752  58.4092808  55.2928209  46.7582369  17.8267753
  55.3447580  47.6555157  17.4974942  55.1151228  46.8562984  18.7622106
   6.9995022  48.4744072  13.8403714   7.3310113  48.9119434  13.0562174
   7.7763480  48.0903387  14.2468572   0.4678493  35.1341391  49.0703297
   1.0068990  35.8772039  48.7992001   0.0323772  34.8484707  48.2672215
   1.6796923  39.7211003  26.5412784   1.6660000  38.8145304  26.2343907
   2.2807164  39.7127390  27.2862148  80.0522041  45.4491854  17.7882540
  79.2188025  45.8766413  17.5908720  80.0979233  45.4434729  18.7443435
  20.6237221   5.9274274  15.5479431  20.6703901   6.6763514  14.9536645
  21.5364313   5.7347393  15.7625675   0.1742270  22.6122189  38.5022593
   0.6713693  23.4278750  38.4407353   0.8410393  21.9255877  38.5137367
  10.9135628  35.6554604  28.4525943  10.1110852  35.3434777  28.8708401
  10.7370389  36.5744424  28.2512450  76.9693041   4.9040321   3.9418751
  76.3640881   4.5777136   3.2759458  77.6618624   5.3383476   3.4439096
   5.5726790  40.7198429  64.8372364   5.4282606  40.7037592  65.7833385
   4.9224171  40.1119375  64.4853210   5.0965375  26.5040112  68.7295294
   5.2244353  25.5616689  68.8384581   5.3418142  26.6754866  67.8203154
  83.2897282   8.1695974  23.0851293  83.0473900   7.9903769  23.9936352
  82.5238800   8.6086869  22.7151155  36.2909198  53.5832691   2.0575733
  36.0366392  53.2685947   1.1900745  35.9323812  54.4694901   2.1054824
  57.1739721  30.5502677  17.2205102  57.3950338  31.4813066  17.1975172
  58.0101204  30.1092005  17.3706520  22.4065304  45.4886532  14.4705164
  22.5084209  45.3575659  13.5278261  23.2879519  45.3722572  14.8251700
  10.0874364  11.3519096  66.6249704  10.1295531  10.4101562  66.4589596
   9.3339086  11.6513228  66.1162663  35.4472399  10.2065909  57.3686838
  35.9778237  10.3833580  58.1455135  35.3033185  11.0675645  56.9759464
  22.9686832  14.2282593  13.3146048  23.6433053  14.1678190  12.6382422
  23.3399200  13.7646735  14.0652740   0.9747630  22.5512385  10.1351571
   1.5916260  22.7296805   9.4253194   0.5074443  23.3772779  10.2596772
  41.0841799  41.2866640  11.5200436  41.0482788  41.0451365  10.5945134
  40.6565809  42.1420670  11.5611076   2.9174760   2.4580611  35.5015254
   3.2139137   2.7772230  34.6491814   2.9313207   1.5045877  35.4182863
  85.9367657   4.0368259  32.2283912  85.1119328   3.7368131  32.6103258
  86.3325977   3.2461250  31.8618584  13.9301360  34.5666003  13.7125802
  14.3532145  35.1879215  14.3051994  14.6417713  34.0035295  13.4080172
  72.5629902  22.3140097  24.9631500  71.8560219  22.3425698  24.3184686
  72.2997522  21.6284060  25.5770636  55.8107758  51.6368866  49.3692875
  56.4638424  52.0902061  49.9024248  56.2542486  51.4705324  48.5374880
  67.3964691  43.4333611  33.6894321  67.5846004  43.9538956  32.9084826
  66.5233183  43.7161922  33.9611769  63.7805367  35.1364470  49.6383142
  63.3137608  34.3271780  49.8467255  63.2294416  35.5697584  48.9865685
  78.9516163  76.1324835  35.1686263  79.1121006  75.1922321  35.0886011
  78.8470411  76.4352322  34.2666078  11.2514591  23.2163525  25.9816074
  12.1541369  23.4222913  25.7387209  10.7764447  23.2051802  25.1506639
  20.6453729  45.6580782  21.7574191  19.7638786  45.3754807  22.0010090
  20.6165004  46.6128349  21.8194175  48.8194799  56.6450548   1.8924503
  49.4726467  57.3005819   1.6477248  48.6209917  56.8353748   2.8092998
  20.5205417  13.4775496  29.8764563  20.2493978  13.4930158  30.7943201
  19.7929275  13.0563736  29.4188333  37.1705294  78.5379171  43.3758116
  36.7982769  77.6710176  43.2141352  36.7645502  78.8241100  44.1940451
  18.6004138  12.4936557  67.5456572  18.6954820  11.8652630  68.2614183
  18.4324801  13.3292770  67.9812813   5.0390846  37.3209524  11.4262593
   4.5667428  37.7794027  10.7313144   5.9031546  37.1459770  11.0534346
  74.6360826  33.5117054  63.0141354  75.1377869  34.2486525  62.6656628
  73.7425756  33.8459682  63.0925322  74.1299248  19.8893619  33.8224840
  74.3948603  20.7287550  34.1985941  74.8553610  19.2977226  34.0223289
  16.3316905  35.5484819  50.2525663  17.2437179  35.6626177  49.9853420
  15.8846247  36.3252711  49.9164677  23.6881685  62.6796103  50.0699902
  23.4887576  62.4695110  50.9823084  24.1233754  63.5312176  50.1099396
  16.5988791  24.9202013   7.0464450  17.2322571  24.2101240   7.1506315
  16.3174248  25.1229167   7.9385895  59.3838739  62.1505833  46.9042015
  59.1254187  63.0721951  46.9122458  59.8592615  62.0279694  47.7259064
   2.5846455  12.6570642  35.0355744   2.5660259  12.9970038  34.1409659
   2.3513620  11.7330968  34.9456048  36.0900140  72.3637342  39.5752525
  35.2438354  72.3312187  39.1289806  36.1976099  71.4889812  39.9486971
  18.1989706  17.8437638  52.5637197  19.0609014  17.7448475  52.9681015
  17.5838840  17.7928042  53.2953644  11.4441741  81.2910366  27.4722004
  11.6262972  81.6590500  28.3368564  10.9002256  80.5233669  27.6483607
   4.2443770  38.4271669   8.6575454   3.9302132  37.5230694   8.6458409
   4.3595377  38.6526799   7.7344453  74.8500443  60.5742931  23.1860423
  75.0574303  61.4871836  22.9864144  74.8184681  60.5393934  24.1420841
  49.0472269  41.5485144   6.1061656  48.3405447  41.1712408   6.6300893
  49.2495441  42.3780394   6.5388155  71.9077873  62.0208597  38.6034775
  71.1166096  62.0761108  38.0675530  72.5616503  61.6277122  38.0254388
  11.5570617  25.8741784  62.6999521  10.9669030  25.3666067  63.2570076
  12.3136163  25.3025770  62.5690794  79.6101189  64.2350340  24.5785975
  80.0731850  64.9802637  24.1959190  80.3021812  63.6139917  24.8057175
  75.2686501  13.4312785  56.3025999  75.2830505  13.5532105  57.2518921
  74.7982359  12.6076210  56.1740208   0.7252954  65.6513023  49.8508501
   0.4799615  66.5711880  49.7515869   0.2856401  65.3714561  50.6537342
  56.5928268  69.1393757   4.0975872  57.0957756  69.7945309   3.6137998
  57.2120142  68.4250498   4.2478257  12.1880949  44.3824911  36.6697764
  12.2960329  43.4349680  36.7520928  12.4344325  44.5738935  35.7648373
  24.4662023  53.1933737  34.6249843  23.5635376  53.4908533  34.5112610
  24.4065976  52.2380829  34.6152043  75.5348587  76.9126368  43.8963079
  75.4972792  77.7543545  43.4420681  76.4702892  76.7321110  43.9891148
  17.4305463   3.3066240  21.0817838  17.2599733   3.0856511  21.9973755
  17.7047729   4.2234388  21.1037445   7.0118356  43.8721609  41.0496235
   6.0689521  44.0369749  41.0435152   7.3904657  44.6307516  40.6053162
   6.2770438  45.3347206  61.1817217   5.9076387  46.2086964  61.3079691
   5.8453947  45.0037289  60.3940964  13.5655248  11.0406411  55.8090544
  13.7933934  11.4875996  54.9938631  12.6167798  10.9232545  55.7607269
  18.2963896  63.8306236  63.4237003  18.1255567  63.9880848  62.4951267
  18.5273433  64.6909666  63.7739944  14.1037726  61.7335653  33.2035804
  14.5314944  60.8817673  33.2914782  14.4870412  62.1135950  32.4130654
  16.8649614  66.2153292  33.1499290  16.5221822  65.5553913  32.5472522
  16.0856080  66.6132832  33.5378385  26.6108632  49.6550179  21.4532781
  26.8883920  49.8854780  22.3398972  27.0256972  48.8089991  21.2847567
  82.2413254  59.4773149  47.4768972  82.6101589  58.8511562  48.0998898
  82.9694271  60.0613880  47.2648716  69.9994230  16.1225486  42.0022869
  70.8140612  15.8680260  41.5689087  69.3684626  16.2185037  41.2889004
  17.7374339  56.1847067  49.7517681  17.4024343  55.6919813  50.5009222
  17.7806211  55.5429029  49.0429306  68.4870672  77.0118618  38.3439517
  69.3020725  77.4941921  38.2047987  68.7549114  76.2170172  38.8051605
   8.4412616  64.6095037  22.0304728   9.1516620  65.2316046  21.8737698
   8.5048598  64.4032526  22.9630208  72.6347256  11.4127886  64.4533920
  73.3243847  11.4493251  63.7906170  72.1619940  12.2390234  64.3529367
   2.1872009  51.2711525  26.6416931   1.3932103  51.0584402  27.1321654
   2.9011992  50.9401274  27.1865392  21.7966151  62.5235939  24.7783303
  22.7052975  62.8215885  24.7367382  21.5200925  62.4697685  23.8635254
  11.0702467  63.0823326  19.5506084  11.2032223  62.5103712  18.7946904
  10.8850288  63.9414263  19.1712880   0.2294898  30.5290055  50.7260323
   0.5934359  31.0548925  50.0138378  -0.6367525  30.2685523  50.4129505
  25.3202128  14.5841253  66.5588379  25.6231236  14.8818326  65.7010221
  25.9309793  14.9813735  67.1796370  15.8327532  49.4197845  63.4784842
  16.1183846  49.3943691  62.5652504  15.2891052  48.6386824  63.5812283
  22.3662329   8.1450653  70.2448273  23.2827020   7.9735857  70.0282335
  22.2267127   9.0573114  69.9907112   8.0684215  37.2124195  39.3132377
   8.3437395  37.1072316  40.2239323   7.1335638  37.0069432  39.3203855
   5.4230821  50.8036709   5.5531007   5.6592613  51.5135574   6.1501867
   6.2460154  50.5665064   5.1255900  12.9586637  53.4247160  58.8583755
  12.3947430  53.2073927  58.1160879  13.8276470  53.1209850  58.5959911
  28.5758686  63.0656767   1.3592368  27.6449752  63.0000925   1.1462443
  28.7012506  63.9821339   1.6054410  52.9099512  23.3725023  15.9289372
  53.0905056  23.7783408  16.7768335  52.9092836  24.1021919  15.3094327
  58.2654190  60.6734943  34.3198180  58.1591415  60.2429676  35.1680994
  58.7617493  60.0466299  33.7935805  22.1027613  16.6451585  51.8455076
  22.2855687  15.9183717  51.2500286  22.3802018  17.4246860  51.3642597
  38.3648896   2.3157761   2.2701688  38.9882827   1.6395091   2.0050722
  38.5427237   2.4540299   3.2004875  37.5125432  31.1098719  57.9228640
  37.9062557  31.9823384  57.9178858  36.6273975  31.2446022  57.5843430
  22.8750277  28.9513564  42.0905352  22.8541541  28.0910206  41.6714668
  23.4072375  28.8225007  42.8756380  71.7518187  32.8120780  26.4867187
  72.0464993  32.5164890  25.6253123  71.0770464  33.4642911  26.2982297
  67.7563715  17.4498999  59.6381474  66.8639469  17.4769437  59.9832201
  68.1438780  18.2816219  59.9107456  82.7553463  17.8821814  10.0985873
  83.4006786  18.1772363   9.4561547  83.2638264  17.3806918  10.7359099
  52.5308180  67.6819134   0.5765555  51.7159414  67.2618771   0.8518463
  52.9010487  67.0839262  -0.0727321  84.6565914   8.9736289  45.4403305
  85.4261303   8.4047240  45.4603052  84.6433735   9.3275136  44.5510483
   7.0919758  64.2105150   6.2264192   7.4253935  64.0454674   7.1083623
   7.8392005  64.0419197   5.6524312  10.7183826  31.9308090  23.2080483
   9.9369347  31.9035316  23.7601590  11.4439178  32.0293713  23.8245845
  81.2392998  76.0349607  37.0473480  81.5925312  76.8128824  37.4789691
  80.3461647  76.2799978  36.8054748  19.5195699  29.0643001  33.6795163
  18.6727893  28.7109399  33.4068775  19.4949329  29.9817920  33.4077907
  16.0648811  52.1479702  32.4454331  15.4772770  51.4295864  32.6796842
  15.6027102  52.9372120  32.7277994  63.7098122  16.5848160   8.7623012
  64.4124842  15.9348333   8.7601149  63.8520145  17.0885682   9.5637023
  39.3199396  68.9491367  12.8717184  38.7925434  68.8612700  13.6656737
  39.3192911  69.8882341  12.6864588  30.2085948  54.9739981   8.3832210
  29.4449282  54.5520592   7.9895049  30.8615971  54.9883986   7.6834977
  35.0838876  53.5207796  15.6312680  34.2835307  53.8439751  16.0450363
  35.7355714  54.1993046  15.8077455  15.9267914  23.9615393  51.6840792
  15.6261861  24.6829581  51.1314249  15.7841480  23.1777835  51.1534071
   5.4379714  37.9425311  31.1951017   5.0970769  37.0508838  31.2657142
   6.3108784  37.8359842  30.8170652  42.1540213  43.1595993  40.4321194
  42.7965450  42.8681278  41.0789871  41.3075256  42.9273033  40.8138466
  32.9072380  35.1292825  34.8584771  33.2706523  34.3262243  35.2316523
  33.3814812  35.8342433  35.2993369   9.1367656  51.4978218  42.3665047
   8.4727412  51.2630081  43.0147076   9.6285605  52.2103596  42.7747345
  23.6747456  49.4409180  36.7462087  23.6692095  49.5758104  35.7985783
  22.7774668  49.1823196  36.9565701   3.3641800  12.4213254  37.6770234
   4.0426874  13.0681038  37.4832749   3.1319687  12.0548689  36.8237829
  80.8875847  27.1809196  33.0097079  80.6343555  27.9137707  32.4484277
  80.5913448  26.4033532  32.5365663   9.5647532  23.5502839  40.5312443
   9.5644456  23.5585070  39.5740795   9.2799425  24.4300699  40.7784128
  11.1222959  20.4415941  48.0566883  11.4116871  20.4799438  48.9682913
  11.7588127  19.8701108  47.6271772   0.4053965  36.3037562  56.0369873
   0.7079440  37.0066524  55.4619789   1.1976013  35.8101702  56.2491608
  20.7015514   6.0424328  63.9658928  19.8103416   5.8004421  63.7140656
  20.8325481   5.6226385  64.8160934  57.7131844  34.1599822  69.4884109
  57.1783876  33.3674502  69.5344448  57.0895720  34.8585463  69.2900467
  82.2810936  47.0906830  28.4543324  83.1354046  47.4131250  28.1672430
  82.4155521  46.8362522  29.3672490  25.2323484  35.1857901  42.3395777
  25.4727721  36.0871625  42.1252108  24.5354581  35.2720261  42.9900694
  19.7433960  30.9861612  40.8628559  20.5075121  30.9766507  40.2864313
  20.1101899  30.9777498  41.7469501  52.1737528  21.2496901  55.2236319
  52.4519539  20.3498054  55.3940487  51.2212896  21.1952281  55.1456356
  16.0979807  40.8826447   8.0627829  15.2888513  40.9800816   8.5648263
  16.4222383  40.0131607   8.2974756  26.1519432  48.1505251   6.2908459
  26.2059426  47.4953508   6.9865888  26.9676638  48.6459112   6.3645148
  35.8985758  26.1652017  27.4046826  36.2640142  25.2805209  27.3996902
  35.5046654  26.2665224  26.5381956  73.7477875  15.4404664  37.3810601
  74.5367384  15.5118263  36.8437600  74.0313530  15.6978476  38.2583141
  18.2689762  33.9243007   2.5207916  18.4201586  33.0769706   2.9396063
  18.7823820  34.5431495   3.0400914  54.8679638  59.6584988  67.2529697
  55.0283623  59.2955208  66.3819075  54.4062805  58.9628172  67.7210474
  85.4134369  10.8607709  47.8080177  84.7204876  10.7129264  48.4516001
  85.5905914   9.9936718  47.4433422  74.1231918  31.3851619   2.1781033
  73.7784433  31.5122056   3.0619824  74.1343164  30.4353929   2.0595787
  63.2630301  45.5873585  23.3323455  63.8617802  46.3341713  23.3319044
  63.0234385  45.4730082  24.2519927  85.2936649  65.6628847  21.3872218
  84.6753883  65.0396919  21.0056591  86.0519505  65.1308155  21.6283631
  74.9294710  44.2548513  51.1703634  75.7183647  44.1225386  50.6446505
  74.6534967  43.3714533  51.4146662  23.9035153  30.0048470  14.1395330
  22.9922652  30.1255774  13.8725507  24.4148755  30.3791356  13.4221423
   3.8751554  48.3225060  40.2965021   3.9710769  48.0127430  41.1971045
   3.3073562  49.0899372  40.3663731  21.9840145  60.8553600  64.7105598
  21.4464641  61.6334677  64.8582506  21.6299677  60.4680824  63.9099979
  11.6664267  44.1266537  42.0141554  11.3322020  44.0505075  41.1204433
  12.3394072  44.8052740  41.9611883  22.8639388  53.3517122  20.3052139
  23.3294439  54.0913963  20.6956124  23.3316684  52.5795221  20.6233048
   9.7384673  22.9616451  28.2171631   9.5417666  22.0263958  28.1638122
  10.0469649  23.1918883  27.3407793  82.4518394  64.5952177   4.6156257
  82.4553013  65.4980230   4.9336934  81.5324974  64.4135141   4.4205955
  23.3822417  25.2886105  43.6621094  23.6933112  25.3017616  44.5672607
  22.6436830  25.8974576  43.6537933   4.8690110  59.6838951   7.1314257
   4.3799692  59.1125488   6.5392816   5.7202631  59.7952604   6.7081064
   8.8196450  40.3607702  30.0100565   7.8911763  40.4819727  30.2087712
   9.1543543  41.2479353  29.8791242  17.7056134  38.2225657   4.5553029
  17.8958106  37.9912376   3.6461580  16.8451774  38.6405516   4.5211136
  67.5301504  69.9658203  68.5157919  68.1640959  69.4419098  69.0055513
  66.7323399  69.4369268  68.5145950  56.4646530  80.0759888  42.4155664
  55.8494425  80.2273083  43.1330967  56.8065262  80.9451199  42.2058868
  76.9310808  76.7305899  40.9678555  77.8860474  76.7023516  41.0267258
  76.7257643  77.6579046  40.8488226  73.3002377  72.8793430  39.6921730
  74.0904951  72.5097275  39.2983365  73.5611010  73.7557220  39.9752641
  21.5455604  10.5683291  31.9498181  20.6746316  10.9318233  31.7898655
  22.1469831  11.2740862  31.7122674   5.9431463  36.1031461  37.3316121
   5.4982340  35.5016494  36.7345452   5.6350493  36.9710684  37.0708108
  20.0140953  42.6873112  19.0875328  19.4698632  42.1172285  19.6307194
  19.6338224  42.6181126  18.2118404  32.5736213  45.2253771  26.7777276
  33.3314967  44.6660233  26.9479656  32.2167420  44.9001551  25.9512281
  26.4432836  66.2608624  20.1024818  26.4160800  66.8868876  19.3788910
  26.1773038  66.7689228  20.8688760  55.7703495  27.1803117  12.8515446
  54.9148417  27.5993228  12.9451680  56.3869905  27.8079677  13.2284236
  55.2002239   4.8545468   1.1566725  55.2433109   4.4502607   2.0232335
  54.3375731   4.6105915   0.8211881  58.3315802  50.9780741  18.4112525
  57.8449726  50.7798433  17.6111591  58.6910963  51.8526268  18.2624602
  56.6211891  37.0286059  23.3620787  56.0445118  37.3290157  22.6596332
  56.0331440  36.8558025  24.0973139  75.4837132  48.4885168  19.7249186
  74.9665928  49.2650557  19.5108855  76.0003614  48.3201361  18.9369118
  23.4300590  31.5283847  67.3268318  23.9971066  31.0149002  67.9021740
  23.0766964  32.2164416  67.8906965  67.4259424  10.2581525  45.3224373
  66.9983816  10.2087271  46.1774111  66.7335987  10.5394924  44.7243214
  11.5806711  64.3867254  42.6389170  12.2525644  63.7629509  42.3637867
  11.0720134  64.5561266  41.8459463  10.0417328  41.9864130  18.3103561
  10.4092050  41.4485788  17.6089776  10.1630306  41.4627218  19.1023576
  38.3703303  60.1639462  19.0672195  37.9896879  59.5299768  18.4594178
  39.2588496  60.3053570  18.7404680  22.0021272   0.6465523  32.8380561
  21.9634867   1.4766592  33.3130956  22.7662969   0.7321576  32.2680116
  37.9042959  37.6272583  34.2501807  37.7713656  36.7642093  33.8581252
  37.6868272  38.2439423  33.5511518   4.9420515  18.6513579  35.3807974
   4.7417298  18.0990386  34.6251202   4.2844176  19.3462253  35.3506374
   4.1165146  19.2570710  14.8759902   3.8022363  18.3926117  15.1408887
   4.2730144  19.7179484  15.7002056  16.3973904  63.6354971  66.6713285
  16.0925019  63.1866932  67.4599028  16.3732231  64.5646477  66.9000721
  51.0721779  68.2360744  54.8427248  51.4742470  68.4204721  55.6915855
  51.4685917  68.8716602  54.2468119  76.8219328  25.8773661  13.4717500
  77.7314043  26.1312008  13.6287713  76.8077612  24.9321127  13.6218286
  16.2145603  52.3860788   4.7536322  17.1593368  52.2350836   4.7248688
  16.0485494  53.0016804   4.0396941  25.7137346  51.8617105  27.7971220
  26.3758564  51.5360069  27.1874094  25.1802874  51.0942793  28.0037904
  27.6206374  56.7402792  10.2103281  27.7337074  55.8038378  10.3732014
  28.0726910  57.1663475  10.9385753  22.9299974  25.3481531  36.5797806
  23.1154490  25.1649141  35.6587672  23.5008335  24.7504115  37.0625663
  29.7759819  30.8914852  26.9156075  30.3121090  30.4819155  27.5946188
  29.1714764  31.4569163  27.3963308  23.4337807  71.0737848  30.0966382
  22.7244473  71.6284275  29.7719073  23.7877131  71.5520716  30.8464408
  25.6947780  62.5185823  54.1529369  26.3997984  62.0603228  54.6102905
  26.0117602  63.4173393  54.0635586  35.3743505  50.5105400  29.1714644
  35.2594161  49.7790909  28.5648298  35.1725101  51.2877655  28.6504912
   4.9499127  63.5892630  61.5665722   4.0948868  64.0193462  61.5803862
   4.7900882  62.7524853  61.1301184  44.3451452  41.6875696  33.4228277
  43.5932493  41.7365313  32.8325009  45.0986433  41.5794420  32.8424978
  11.9041109  52.5114632  10.7574975  11.4113092  51.7066765  10.5972111
  11.2425864  53.2032251  10.7483852   9.5205790  47.2455931  37.4590373
   9.0129936  47.4224424  36.6670060   9.3714368  46.3169289  37.6367211
  62.2532463  66.8098259  41.4291954  61.6076803  66.8530416  42.1346140
  62.7955341  67.5888538  41.5527439  32.9337549   6.3606584  62.6147366
  33.0520630   6.1857694  61.6811132  33.1229591   7.2941852  62.7093983
  85.2755070  40.7764006  28.2914400  86.2100792  40.5991030  28.1847978
  85.2417850  41.5747261  28.8184834   9.5481223  53.6814260  27.1619916
   8.9218414  53.2365036  26.5909863  10.3970695  53.5389233  26.7434072
  67.3636150  38.5175252  68.0036879  67.5207567  39.0165281  67.2021055
  67.8436661  37.6995301  67.8745890  10.5369449  37.9089999  24.5143127
   9.9976641  37.1752977  24.8094201  11.4343178  37.5784612  24.5555115
  17.3233914  44.1876173  13.9769161  16.8829393  44.6844721  13.2874489
  16.7638600  43.4235954  14.1162956  17.0738101  42.1570587  27.8058910
  17.1880877  42.3553705  28.7353253  17.9561412  42.2123957  27.4389315
  26.3455153  69.4443607  38.2803416  25.7102036  69.3425465  37.5716496
  26.8851447  68.6551619  38.2334638  77.9876661  29.1140485  50.2905321
  78.3507824  29.1712141  51.1743402  77.1864367  29.6365166  50.3265285
  57.8925896   6.6803020   5.8276969  58.3981848   7.3934436   5.4377800
  58.4777641   6.3031322   6.4846194  35.1667023  22.9705334  51.3409233
  34.6703100  22.2901082  51.7957306  35.9692168  22.5325346  51.0574532
  71.1472368   7.2624803  27.1267891  71.2379408   6.7604357  27.9366994
  72.0450449   7.3814702  26.8169260  25.8844590  63.8667488  36.0604382
  26.8131971  63.6966705  36.2177539  25.8390260  64.8072100  35.8881116
  74.6153641  74.9372911  70.4761267  74.2830229  75.5576849  69.8273611
  75.5285025  75.1931095  70.6063652   6.1679560  27.5125051  42.9265738
   6.0046232  27.2664809  43.8370800   5.6947398  28.3367062  42.8125954
  29.1681743  15.3104568  30.3784943  30.1169896  15.4066527  30.2964640
  28.9018273  16.0359144  30.9432983  16.3544273  68.2222414  19.7478604
  15.5315650  67.8004217  19.5004833  17.0272112  67.7279043  19.2796481
  16.4105904  63.9748669  26.7541265  17.1237421  63.4358311  26.4119482
  16.7608106  64.8656893  26.7507195  25.0387979  80.0500011  57.3777628
  25.9014654  80.1564884  56.9768953  24.8775148  80.8815956  57.8234863
  28.6947536  60.9736347  55.3281736  28.2717705  60.4164553  55.9815264
  28.4714389  60.5707359  54.4891071   9.5156860  56.7332983  18.6773169
   8.6818004  56.2902927  18.5204375  10.1365376  56.0237026  18.8423967
  85.6631279  59.0493727  43.2310629  85.0340748  58.5795832  42.6835012
  86.2155056  58.3625650  43.6044312   7.6134366  24.2235827  37.9879665
   7.0451814  23.8519120  37.3132968   8.4282458  23.7265539  37.9152966
  19.5770180   1.6364872  40.8018160  18.8204908   1.7460713  40.2257156
  20.3322339   1.6718923  40.2147675  19.2000663  48.7489128  57.4965954
  19.5447683  48.4827709  56.6441965  18.2607579  48.5734606  57.4404907
  77.6017427  29.4439578  40.5987215  78.4982634  29.1484356  40.4401398
  77.6971245  30.3475952  40.8996773  49.0058947   0.8671901  23.3889413
  49.8460865   1.1063567  23.7802267  48.3562708   1.1134642  24.0474033
  11.5311372  39.3270469  22.3947024  12.3701656  39.7762108  22.4972463
  11.2985921  39.0487814  23.2805467  84.2322636  74.5553493  50.1937914
  83.5114574  73.9289093  50.1286602  84.2031288  75.0405884  49.3692160
  10.1527739  39.6053481  20.1581049  10.4396415  38.8067436  19.7151947
  10.5223012  39.5369244  21.0384440  70.0541067   7.9070801  64.8530579
  69.2797089   7.3579377  64.7306538  70.7416153   7.4663466  64.3537378
  71.9881535  81.7548180  12.0171523  72.1738577  81.0609341  11.3844860
  72.8231812  81.9044495  12.4605191  35.1395965  30.8086324  18.6630893
  34.2339969  31.1157632  18.7054217  35.1457500  30.1797748  17.9414713
  50.9369183  38.0670142   8.6165071  50.9807539  37.9304743   7.6701105
  51.8074560  37.8266883   8.9337468  14.9537730  39.7465563  51.6516924
  14.0256917  39.9419999  51.5224695  14.9614608  39.0284801  52.2845793
  56.3772297  62.5750065  19.0655375  56.7636013  62.5344229  19.9403536
  55.5721807  63.0794525  19.1824257  14.1934764  20.0605321  34.7407651
  13.4599006  20.2482510  34.1552210  13.8020980  19.5751178  35.4670048
  29.0236187  64.1736507  39.7148323  28.0806422  64.0562296  39.8298907
  29.1472363  64.2037678  38.7661266  16.4555234  81.3442772  16.6019332
  15.5976027  81.6636611  16.3223028  16.2666482  80.7664277  17.3412895
  44.5074320  56.9147730   5.8375216  43.7320900  56.3538361   5.8580405
  44.7278833  56.9847918   4.9086884  12.8383362  44.1718864  47.8714752
  12.8783894  44.9265289  47.2839880  12.0256352  43.7257814  47.6332760
  25.5977631  23.3220553  10.4806161  24.9210429  22.7305150  10.8098018
  26.4003325  22.8006721  10.4971206  28.3002925  32.7879477  28.1217170
  27.6414371  32.2978687  28.6136150  27.8449917  33.0724478  27.3292565
   8.0012679  54.4996548  41.6225481   8.7863028  53.9520931  41.6112375
   7.7593505  54.5524168  42.5471735  24.2633414  33.0427861  40.7955885
  24.6748805  33.8279319  41.1567163  24.9967694  32.4951625  40.5155468
  12.0398784  67.8594780  19.3496466  12.3290431  67.1378756  19.9081314
  11.7124295  68.5191679  19.9610519  72.3023653   5.6296659  60.8783484
  72.3647356   6.5777862  60.7625484  73.2014847   5.3166151  60.7792854
  15.8393145  41.4789677  58.7354994  16.1732018  42.3668480  58.8636541
  16.6185510  40.9541988  58.5520935   7.1957159  37.5153208  20.5561662
   7.5755173  36.6367579  20.5458283   6.6121918  37.5329399  19.7976017
  36.2353826  33.3609462  35.5631757  37.1169400  33.5125065  35.9039354
  36.2482810  33.7446713  34.6863508  52.2696018   6.2720317  28.9834571
  52.8998852   6.8268853  29.4429255  52.5257206   5.3785336  29.2121387
  76.9178438  24.9909949  69.8891115  77.4505186  25.7554603  70.1083899
  77.4230623  24.2458129  70.2142143   7.5351691  43.0376625  17.5274014
   7.7465636  42.8443003  16.6140807   8.2266682  42.6066875  18.0297160
  11.7637348  58.4108353  56.5800333  10.9571528  58.6972713  57.0085335
  12.0085204  57.6089191  57.0418215  65.5020809  54.8691463  60.6714916
  65.2374315  54.0712595  60.2137041  64.7126007  55.4102182  60.6856489
  75.2345037  60.0665712  58.0359077  74.8113537  60.2125359  58.8819981
  75.0732136  59.1428614  57.8436279  11.8263936  33.1308985   9.1517198
  11.1405230  33.7241316   9.4581330  12.4203134  33.0458713   9.8975486
  13.7511086  57.6981354  16.3239861  14.4598615  57.7831697  15.6862783
  14.1495299  57.2425318  17.0655489   3.4474739  37.5448203  20.6937313
   2.5389016  37.3660064  20.9361219   3.9255923  37.5211835  21.5226316
  25.6662369  64.7902918  49.9582291  25.9495354  64.9487782  50.8587027
  25.4308748  65.6562996  49.6252584  18.7034035  52.7559948  51.2707567
  18.7883747  53.0175638  50.3539133  18.0466068  52.0597506  51.2613058
  83.3363533  10.6258237  28.5293674  82.8606510  10.6908214  27.7012897
  82.6701546  10.7738805  29.2005563  23.4948087  70.3418732  11.5146637
  24.4251561  70.1806736  11.6718268  23.2651281  69.7445250  10.8028686
  15.9445953  55.8750677  31.0046411  16.5352893  55.2362204  30.6056595
  15.5707943  55.4178524  31.7579389  21.4573240  54.4127178  10.7159674
  21.1002016  53.5278606  10.6403494  20.9704924  54.8064184  11.4400041
  52.7751207  22.3090029  32.8228951  52.2513342  21.5118456  32.9030418
  52.3263931  22.8240275  32.1523547  67.6027346  49.5378065  52.9013634
  67.5806570  48.6729002  52.4918795  67.8700352  50.1291752  52.1977472
  47.9119253  73.6842728  45.4614162  47.7711487  74.2364454  46.2305212
  48.5299683  73.0155754  45.7565451  73.3342743  40.2650404  16.2625670
  73.7235689  40.7919407  16.9604599  73.6219025  40.6886196  15.4538155
  11.0454440  54.4390392  38.5602236  10.1481926  54.7382927  38.7072563
  10.9561551  53.7021780  37.9558301  69.6086550  23.0344796  19.7668910
  70.2239799  23.1340122  19.0404606  69.4564724  22.0912027  19.8243356
  41.5060806  75.7504082  43.9448786  41.3151741  75.1381397  44.6554518
  41.0260296  75.4024220  43.1934214  28.4688687  78.9132404  59.9198818
  28.6830306  79.7219419  59.4547319  28.4313464  79.1696835  60.8413267
   1.8483137  62.8881979  29.4337225   2.5595984  62.6692486  28.8317537
   1.2881406  62.1120310  29.4349861   8.1406051  37.2973299  31.0253954
   8.9068902  36.7599297  30.8247948   8.4330893  37.8791142  31.7269731
   2.1638989  37.2230244  24.2118812   2.8433186  36.9110656  23.6141348
   2.5214010  37.0630145  25.0852776  80.4055214  77.1246672  26.0899830
  79.6345043  76.5795755  25.9330297  81.1374855  76.6060686  25.7560396
  38.3744931  66.9097185  11.3020992  38.6805034  66.0291529  11.5193295
  38.8252139  67.4802828  11.9246256  66.5535784  79.1259861  35.1946974
  65.7247353  79.4487000  35.5484056  66.3894272  78.2023239  35.0046015
  83.0535126  14.7897756  46.3151884  83.2555580  13.8602281  46.2086439
  83.7378597  15.1183295  46.8982458  17.8248632  43.1846285  56.0585976
  17.8734338  42.2480965  56.2503815  18.5909879  43.5583353  56.4940596
   0.5607489  80.1547337  30.2937818   1.2992644  80.0317097  29.6973825
   0.7383746  80.9902191  30.7258034  74.4313526  52.4985218  50.3918362
  74.1675901  52.1178102  49.5541525  73.6102629  52.7766323  50.7976627
  39.9621367  60.6864452  44.3039799  39.7145629  61.4917994  43.8497210
  39.2369843  60.5182743  44.9057293  23.1074333  42.5761271   9.6775007
  22.5934219  43.3815765   9.7347093  23.0416489  42.3147440   8.7590325
  47.7931356  19.0361416  67.7358532  47.0729589  18.4059477  67.7150393
  47.7613544  19.4071341  68.6176586   7.1348310  54.3522120  53.5874319
   8.0200922  54.6164560  53.8378716   6.6171598  55.1544809  53.6553907
  66.5296745  60.7179403  51.1590958  67.3802233  61.1562538  51.1851501
  65.9802103  61.2927961  50.6263113  16.3922572  48.2895470  34.8808932
  16.8449700  47.5658703  34.4477868  16.8012702  49.0770197  34.5219731
  46.5484762   2.8648123  27.5391650  47.1174431   2.4195124  28.1670308
  45.8162642   3.1860492  28.0653811  16.0076487  56.9477892  17.8953755
  16.5578580  56.7458057  17.1386027  15.9859359  57.9042149  17.9272652
  80.9400463  48.1981659  33.3682442  81.7735100  47.7500772  33.5124230
  80.2758980  47.5351715  33.5568786  14.8735571  49.7957945  32.7677083
  15.2974582  49.5797396  31.9371295  14.4898772  48.9699697  33.0627322
  75.1724815  13.8255906  23.9877701  74.5617723  14.5590603  24.0605092
  76.0261059  14.2026424  24.2008162  84.0400219  46.2636709   8.0697298
  83.7939167  46.8995762   8.7415129  84.3897915  46.7945051   7.3541147
  10.1234877  62.2029543  67.8383636  10.1873362  61.7849302  68.6970854
   9.8292094  61.5047789  67.2533941  25.5513597  73.0704165  11.6205573
  25.6704998  74.0025616  11.8026114  25.3371239  72.6858425  12.4705231
  17.4420881  52.2480536   1.6350698  17.0898974  51.4725780   1.1982229
  16.6684771  52.7402639   1.9098160  13.0721581  30.2170992  21.5075803
  12.5678420  31.0286498  21.4502764  12.8436077  29.7363997  20.7120156
  20.6069160  51.5628147  23.8635468  20.0782585  52.1140289  24.4405365
  20.2254128  51.6902161  22.9949522  23.1497431   9.3889570  12.7510393
  23.0594802   9.9944746  12.0152175  23.0149674   9.9330890  13.5269177
   8.9191252  48.9339542  68.4000635   8.0336291  49.1946554  68.6533689
   9.1359222  49.5061398  67.6639652   0.8986735  60.4393578   9.9711847
   1.6945525  60.6892061   9.5017338   0.1970043  60.5520201   9.3299365
  40.4986715  56.6119194  37.0576620  40.2150631  55.7037401  36.9527149
  40.1856565  57.0533466  36.2681079  14.9084830  51.8765163  57.6900434
  15.5809128  51.4378500  57.1688509  14.4459355  51.1646843  58.1322813
  85.5211735  55.2840185  18.6361790  84.6609497  55.6900120  18.7430525
  85.3531075  54.3444061  18.7076402  79.7735310  61.5969229   6.8140322
  80.7115841  61.4990950   6.9774991  79.3805122  60.8129978   7.1977401
  21.7195892  26.1227870  16.4261401  20.9434867  25.5708313  16.5222824
  21.9877267  26.3175392  17.3241413  13.4451270  65.3675413  60.1008892
  12.6753271  65.8664179  60.3743124  13.2727408  65.1431513  59.1864729
  -0.1119879  11.6309524  31.7998552   0.7511563  11.2527049  31.9676137
  -0.6000369  10.9310007  31.3661432  19.8577702  72.0417643  14.8441279
  19.6614528  72.8474760  15.3221655  20.0315094  72.3310137  13.9483702
   3.6025608  33.5937691  24.5911837   4.2015660  32.9667020  24.1859555
   2.7858397  33.4954882  24.1017556  79.2465591  69.0422630  13.1071270
  78.3607340  68.7447405  13.3145607  79.2905521  69.9298334  13.4628093
   6.7362779  39.5624375  41.0861397   6.5719312  39.9288058  40.2172327
   7.0100498  40.3122711  41.6143703  62.1749544  49.5366764  54.6789265
  61.3297462  49.8491240  55.0017786  61.9648743  48.7428284  54.1870975
  53.7607956  46.0961580  11.4303124  54.0317917  46.8755674  10.9452224
  52.8906488  46.3129234  11.7651045  51.6982889  56.9439840  21.7059422
  52.0826054  56.7617226  22.5634480  52.3903131  56.7250824  21.0819077
  23.0813193  11.3100851  10.9051883  22.8642392  12.2310948  11.0495770
  23.8955998  11.3318956  10.4024923  29.9548507  52.3840523  27.3014331
  30.8029890  52.1113873  26.9513655  30.1688743  52.8615808  28.1029272
  37.7417874  52.0166206   3.9184588  38.3942795  52.5692558   4.3486655
  37.1446514  52.6347923   3.4971249   7.7846271  18.6658990   7.4685419
   8.1146258  19.2614400   6.7957389   8.4582549  17.9897499   7.5411963
  17.8221881  68.2114029  44.8761654  17.5566232  67.3514223  44.5503759
  17.6463938  68.8079357  44.1485167  57.3945713  61.3576221  49.0439701
  58.0248404  61.6675901  49.6942902  57.9197264  60.8525324  48.4232187
  18.4393072   4.7253397  56.7936230  19.0855312   4.1089693  57.1381712
  18.7198377   5.5776846  57.1268511   2.7487913  39.4896388  16.4678705
   2.7524129  38.6016893  16.1104274   3.6329278  39.8175740  16.3035750
  12.9242671  41.8967485  33.3935976  12.1053612  42.2136450  33.0125475
  13.1366551  41.1128998  32.8869367   7.3044914  70.5023289  57.7779913
   6.9405752  70.0016975  58.5081720   6.8913424  70.1266766  57.0005465
  17.0440626  66.7533827   7.7760404  17.0977628  65.9821796   7.2115976
  16.1451399  66.7473888   8.1048781  17.9897070  69.5479155   9.2151010
  18.0798697  68.6066341   9.3637443  17.4489963  69.6154118   8.4281391
  23.6486292  49.3694019  50.9392071  23.3079123  49.4214487  50.0462151
  22.8679514  49.3217850  51.4910269  18.8124263  24.7378373  66.5729427
  18.9372945  25.3155613  65.8200359  18.0023444  24.2655635  66.3807058
  58.4080982  71.7687941  51.7476797  58.1047297  70.8742285  51.9024324
  57.7581930  72.3207283  52.1826744  50.7062864  66.1731291  31.0872626
  50.7219076  67.0632410  31.4389539  50.0303936  66.1950874  30.4098272
  70.6184721   9.0772247  67.2330093  70.7731581   9.9483812  66.8677807
  70.5605936   8.5038996  66.4686918  43.7737799  61.9559431  18.8156557
  42.9140902  62.3381758  18.9918947  43.7897110  61.8293953  17.8669918
  24.6483731  42.5455713  62.9934692  24.5315814  41.9152164  63.7042713
  25.5573106  42.4290228  62.7169180  26.5997100  64.4780636  68.6644793
  26.5451288  64.5411921  67.7109241  27.5269246  64.3192148  68.8413191
  23.8902164  39.4280672  32.0031166  24.6754193  39.0488744  31.6082740
  23.1641936  38.9685607  31.5812421  19.3192255  42.2333193  38.6653900
  18.6649537  41.8202400  38.1018972  19.8414791  41.5043736  39.0002298
  81.1973953  32.9415488  52.4802780  80.2883530  32.9764700  52.7780199
  81.1768723  32.3669362  51.7150116  84.0248585  45.7978916  54.5895720
  84.1882992  45.3470993  55.4180098  83.0812740  45.7131577  54.4528818
   6.0201526  24.8682594  20.7262969   5.9722632  25.0723076  19.7923267
   6.0288459  23.9117765  20.7623553  36.9475603  59.9112892  29.3802023
  37.7943039  59.5956087  29.0646052  37.0363045  59.9228144  30.3332090
  24.6211553  63.0629587   5.6511456  23.8718748  63.6498404   5.5492681
  24.8293900  63.1002283   6.5846777   1.2383106  19.6582794  32.6299500
   1.2968348  19.5494866  31.6807556   0.6279011  20.3856778  32.7504754
  47.1319771  54.7329998  41.8893385  47.0913649  54.5755148  42.8326225
  46.6469955  55.5482817  41.7615271  12.1187747  41.1863804  56.0804462
  11.6964936  40.7463312  56.8181896  12.4386942  42.0115852  56.4450264
   4.8463833  67.5876284  20.0627637   4.6780276  67.3359156  20.9707999
   4.2024231  68.2719994  19.8806024  12.7016377  56.5557623  41.4479208
  11.9588685  57.0986652  41.1837578  13.0747092  57.0111418  42.2026873
  22.9239130  36.8090630  48.9281559  22.5812674  37.6657271  49.1830158
  22.5928640  36.2099648  49.5972729  13.1613588  35.0782108  26.4204693
  12.9235196  35.2079177  27.3385310  13.7974560  34.3631220  26.4365673
   1.1623387   5.4452723  33.6620188   1.0570426   4.9764356  34.4898701
   0.5777956   4.9923518  33.0542326  10.3244305  44.4459677  49.8524904
   9.8599601  44.6477652  50.6647539  11.1218858  43.9995718  50.1371431
  39.2768025  33.8034463  53.1289482  40.0042582  33.8255525  53.7506819
  39.6824098  33.5700941  52.2939253   9.0249419  34.2148018  44.9811506
   9.6391064  34.5409012  44.3233585   9.4975823  34.2931795  45.8098269
  21.0362577  68.2014799  50.0122309  21.4773583  68.9714432  50.3711462
  20.4602838  67.9051685  50.7169914  45.7937002  33.7976027  25.8493137
  46.7117834  33.7463808  26.1152625  45.6037617  32.9364347  25.4771018
  77.7696037  77.5878620  13.1169093  77.8244543  78.4581423  13.5116708
  78.6647129  77.2508478  13.1547558  14.9064112  45.9157276  26.3063598
  14.4910395  45.0664425  26.1566424  14.6152914  46.4573717  25.5728030
  26.0352969  32.3547292  51.3594103  26.9696665  32.2584105  51.1752796
  25.6532693  32.6251674  50.5244541  10.9639597  61.7933321  56.7005110
  10.3918159  61.4371443  57.3802280  10.4170179  61.8171549  55.9153223
  45.4522133  66.4675188  42.6050329  45.3533792  66.1979866  43.5181665
  46.0376215  65.8129692  42.2241211  75.9386635  28.7927341  57.5003624
  75.9778023  29.2276573  58.3521509  75.0029087  28.7058043  57.3185921
  28.5430408   3.8439083  69.7760248  28.2456470   3.9510900  70.6795216
  28.0324531   4.4826126  69.2784452  10.5636525  38.3774829  44.0321732
  10.0690210  38.6888480  44.7902107  11.2140322  39.0615487  43.8731337
   8.7021029  26.9167972  37.8819108   9.3115199  27.2054434  38.5612679
   8.6323369  25.9706450  38.0090284  78.9582539  27.0326090  24.0202808
  79.8157358  27.4486351  24.1090083  79.1004610  26.1285782  24.3008852
  82.1035099  62.3476267  33.5140538  82.2126675  62.0287085  32.6181722
  82.7200603  63.0762959  33.5856891  18.8923097  52.3042583  21.7644501
  18.0002916  52.3635769  22.1065283  19.2606735  53.1767225  21.9035196
  42.4644184  78.0043745  29.0993333  42.9716253  77.2944546  28.7056565
  42.8420067  78.1130695  29.9721694  26.3875461  46.1512852   8.4681648
  27.3134661  46.1060143   8.7066078  26.0607123  45.2623987   8.6070597
  78.4817505  76.4843988  52.3318529  79.4267797  76.5070057  52.1813774
  78.1047821  76.3328505  51.4651585  73.4931850  69.9098349  35.3417110
  73.1935120  69.3584871  36.0645127  74.3903589  70.1464224  35.5769610
  37.4240494  19.5922840  29.9314618  36.4829803  19.4270897  29.9891710
  37.8120518  18.9922571  30.5683684  15.7360256  44.8030710  35.3180838
  15.7539392  45.7448196  35.1477170  16.3265407  44.6829367  36.0617852
  30.6138563  34.6958804  25.4945827  30.5003357  34.5688891  26.4365053
  31.3998508  35.2369070  25.4188561  40.3271967   0.1348782  20.8892155
  40.6920427   0.2365494  21.7682958  41.0922509   0.0393200  20.3219485
  16.7031217  32.6992750  33.6035013  15.9122145  33.0161381  33.1672740
  17.0577991  33.4703493  34.0460873  39.7883582  79.2034578  28.5072684
  39.3581271  79.1386890  27.6546621  40.6922626  78.9364052  28.3403349
  21.0985637  79.4506407  50.1342535  21.0262370  79.3692112  49.1832685
  21.8921161  78.9637756  50.3566694  80.5863857  10.8722556   2.2273597
  80.2707767  10.3196645   1.5123326  79.7938728  11.2616014   2.5969082
  79.8137999  71.0096073  50.0310946  79.4739294  70.7495546  50.8873034
  79.1233063  71.5555525  49.6550655  60.4746389  16.0948992  38.3869839
  60.9611511  16.8297434  38.0134320  59.7479725  15.9553373  37.7797627
  78.8667440   4.9064296  28.9804006  78.0985689   5.4083800  28.7080288
  79.4834232   5.5659115  29.2982435  46.9794846  60.4449940  40.9565067
  46.5682602  60.8610058  41.7141771  46.4946651  59.6280146  40.8393621
  26.3432431  61.3804054  22.0233464  26.9817328  61.9402885  22.4650407
  26.0470438  61.8988943  21.2752390   5.7754052  76.6647339   6.6001260
   5.1420540  77.2753382   6.9773030   5.2443767  75.9338760   6.2837678
  61.6307926  71.0965395  12.3983860  62.5844574  71.0462809  12.4633825
  61.4715528  71.7184591  11.6883945  79.6378326  -0.1376991  69.2107058
  78.7403250  -0.3560228  68.9596081  79.9003506   0.5442733  68.5924578
  31.7012715  65.4968500  16.6112709  32.1157789  64.7890329  17.1046388
  30.8500218  65.1428175  16.3538516  70.3428030   6.1094898  44.0113497
  70.3273392   6.7927915  43.3412075  69.7513819   6.4289343  44.6928263
  35.0801635   0.0360738  69.7921181  34.6647882   0.2625501  70.6242275
  36.0079527   0.2288873  69.9272633  36.5421700  72.0508862  32.6654720
  35.7420707  72.1670437  32.1530461  36.2639236  71.5536642  33.4346175
  77.7577209  30.1382661  34.6343756  77.4217606  29.5270085  33.9788389
  77.0939732  30.1384902  35.3240657  33.9331985  73.8391066  28.7349582
  33.3340120  73.2245827  28.3112049  34.3073583  73.3445597  29.4641066
  35.6189060  73.1089973  16.4157701  35.5182791  72.4202824  17.0728719
  36.0573816  72.6779079  15.6821942  68.9056206   2.7070493  25.3709722
  68.5314465   1.9864574  25.8779001  68.2491159   2.8940412  24.6999502
  15.4028773  78.6744213  36.6423416  14.6255326  78.2401466  36.9935870
  15.5628467  79.4020700  37.2433114  81.0606670  19.4524515  63.4282112
  80.5631828  20.1705551  63.8194561  81.4208412  19.8219538  62.6220036
  63.6194515   2.5839895  20.8939028  63.6344194   1.8465728  21.5040064
  62.7217865   2.9133323  20.9382272  46.5493679  55.8133984  37.1190071
  45.6959343  55.4668474  36.8586493  46.7809343  55.3156042  37.9031038
  15.8946681  76.1427832   7.7663630  15.9268284  75.2682924   7.3784733
  16.7352068  76.2370825   8.2145089  77.9911423  30.4922009  47.1060371
  77.1114445  30.3280091  46.7663193  78.0043936  30.0554132  47.9576683
  55.5501223  14.4568932  23.1465006  54.8977375  13.7839150  23.3407283
  55.0665665  15.1268303  22.6631904  73.9750528  11.0690045  56.4533138
  73.0492258  11.2069976  56.6533899  73.9809275  10.7610881  55.5470085
  77.9855585   5.1535952  66.3813066  77.9792690   5.9503949  66.9116879
  77.1059370   5.1083833  66.0065413  63.1733322  58.7841749  13.6336398
  64.0901661  58.5396147  13.5078144  62.7814817  58.0279112  14.0703833
  40.7630396  66.5700865  32.1055818  40.0403643  66.8941832  31.5680552
  40.9680510  65.7103443  31.7380929  17.8584135  54.3168020  29.6377754
  18.2892811  54.2771912  30.4916000  18.4356952  54.8620129  29.1032457
   6.1382622  69.7703457   9.2880565   5.3539920  69.3081522   8.9922035
   5.8724320  70.1955414  10.1033926  47.7256489  55.2851486  50.1870584
  48.2016134  55.8362389  49.5657730  46.8245268  55.2834797  49.8642349
  80.2239990   7.7560037  34.9966645  80.9075356   7.1091390  35.1715279
  80.6308460   8.5968417  35.2057123  56.6943502  80.6632519  39.0079212
  56.0919237  80.9286976  38.3130383  56.6496563  81.3736057  39.6479464
  50.1060009  52.4670696  34.7556829  49.9443102  51.7573214  34.1341138
  49.2795610  52.9488373  34.7893953   8.0182987  70.8289909  35.2020574
   8.8393813  70.3905630  34.9788189   7.9324079  70.7094622  36.1478734
  63.2189226  75.3443813  41.4817524  63.0719471  74.4652224  41.1328793
  62.4339724  75.8339262  41.2359428  33.7294197   2.6666066  46.2627602
  34.4606876   3.2675970  46.1203194  34.1407847   1.8079355  46.3612270
  39.2667413  60.9609938  40.3050518  39.0828824  61.7199183  40.8586502
  40.2216959  60.8959484  40.2972555  43.6722946  59.5989656  45.0479221
  44.2079353  59.4940042  44.2615986  44.1936779  59.2048597  45.7472563
  29.4190001  54.3488264  20.5044341  28.5619283  54.6497250  20.8062935
  29.7424459  55.0613070  19.9530828  48.4086818  30.0281049  70.2320360
  49.2849177  29.9081136  70.5981562  47.8734321  29.3663313  70.6699747
  38.4172821  53.9495039  33.6793327  37.4849510  53.9326191  33.4632182
  38.4508705  54.3048286  34.5675015  23.6917114  58.6495590  17.3395646
  24.5128798  58.4357452  16.8966258  23.9500880  58.8508987  18.2389736
   3.8205501   2.5691181  21.5359044   3.4152704   1.9974372  22.1879482
   3.1223023   3.1708768  21.2778974  42.8997469  25.9367013  58.2112551
  42.8669739  26.4834929  57.4262857  42.8205442  25.0411201  57.8827810
  37.2617030  69.2796898  34.1795850  36.6852713  69.3316841  34.9419856
  36.9575644  68.5081959  33.7015390  45.9792709  76.4001894  22.2376418
  45.1280737  75.9774017  22.3514485  45.8606529  77.2785568  22.5990677
  40.2325439  77.8499603   7.9211867  39.5612597  78.4407425   8.2626301
  40.6313133  77.4642038   8.7011898  64.3141747  11.1609781  11.9805968
  64.1853762  10.6231785  12.7618873  64.4400358  12.0477378  12.3183060
  23.3774137  23.0347443  12.3948205  22.6376486  22.5835180  11.9881582
  23.1205773  23.9568090  12.4026847  64.7843933   8.6937201  34.3750501
  64.7361183   8.0356413  33.6816287  65.5388260   9.2340684  34.1403461
   8.9199722  81.7543125  47.4631643   8.4739202  81.0463047  47.9279184
   8.7846172  81.5552521  46.5367270  67.6569653  72.9948187  46.8722153
  66.8551779  72.6557732  47.2702408  67.9840565  73.6370182  47.5021553
  34.6971059  78.7945509   5.1031816  35.4321313  78.2378626   5.3602189
  35.0989914  79.6343756   4.8808995  15.5880237  54.3907118  24.5374823
  15.2773452  54.9168634  23.8006806  16.0602820  53.6642408  24.1307354
   4.4079626  49.6833324  55.7309961   3.9713478  50.4813337  56.0289812
   5.1417184  49.9952793  55.2013540  37.4547029  42.5304651  40.4858637
  36.8635106  41.7845297  40.3843403  37.4794364  42.9361582  39.6192408
  33.7956357  59.5753384   4.7849962  33.2424521  58.8622379   4.4660747
  33.3650613  59.8723316   5.5866379  32.9753637  59.8772097  15.6815875
  32.2337556  60.4823256  15.6908703  32.9335356  59.4340706  16.5290010
  17.0392358  63.0398893  14.9703276  16.2115884  63.4948874  14.8147416
  17.5704575  63.2386541  14.1992724  58.7227345   9.6528560   9.9795240
  58.4663582  10.2870333  10.6490934  57.9104328   9.4551414   9.5133626
  16.6207516  41.9031143  63.3765173  16.1807036  42.6632023  63.7571239
  15.9079707  41.3391352  63.0763531  29.0756869  53.4660769  36.0015345
  29.5135570  52.7168512  36.4054751  28.7070560  53.9537477  36.7380953
  30.1564264  39.9082041  38.9896965  29.4787335  39.3198919  38.6567497
  29.8868704  40.7770061  38.6917806  68.1650591  12.4388564   0.8679268
  68.2526207  12.1300852  -0.0338632  67.2260427  12.5865996   0.9803923
  17.1598232  80.1855373  40.2998877  16.6622317  80.5200481  39.5537400
  17.1018100  80.8792782  40.9568501  64.1253757  71.9615173  17.7424479
  64.2381430  71.2918854  18.4170663  64.6009922  71.6207695  16.9848788
  50.4311419  79.2569160  29.5306516  51.2795782  79.2070007  29.0903139
  50.1989603  78.3452511  29.7072721   8.7379974  38.3353853   3.7640622
   9.5137215  38.8942885   3.7180975   8.8386315  37.8530025   4.5846781
  22.0339584  65.7730961  49.1954708  21.6649318  66.6463947  49.3273926
  22.2678924  65.4765606  50.0750017   6.4734346  13.1825721  69.9201870
   6.1316168  14.0749800  69.8654032   6.1680871  12.7594507  69.1177130
  54.1952562  48.2602167  23.0507731  53.8686991  47.3661041  22.9499960
  53.4849930  48.7263346  23.4917784  32.3291278  31.1775589  43.4009647
  31.6485596  31.6526604  42.9241657  32.6518011  30.5291510  42.7751207
  64.0998983  71.3156223  23.4586525  64.2204142  72.2441244  23.2596803
  63.3010006  71.0721779  22.9909730   5.6719714  38.8474345  36.6055179
   5.6277621  38.6747193  35.6650662   4.7968459  39.1617060  36.8327165
  52.1108246  49.6533871  11.1145711  52.7048063  50.2080297  11.6203260
  51.3295364  50.1918077  10.9883821  41.9833231  75.6908846  31.5767455
  42.8596163  76.0171747  31.3721037  41.4529324  76.4803600  31.6846514
  47.8030443  22.7761793  49.1877508  48.5242748  22.8413939  48.5618067
  47.0135593  22.8034544  48.6471939  50.6464958  22.3502922  25.8343720
  50.8170557  23.1024289  25.2674246  50.2004576  22.7207208  26.5959930
  31.6084146  61.0618639  24.8421264  32.3939252  60.7543421  24.3897605
  31.6751266  60.6863403  25.7200551  66.6400671   5.8146030   0.1411971
  66.3130093   4.9191609   0.2274944  67.5648689   5.7559669   0.3810652
  74.9282217  52.9998493  12.3910105  75.5023861  52.2724152  12.1514213
  74.5399141  53.2813549  11.5626371   6.0002577  60.6078291  28.5463667
   6.1494124  60.9763813  29.4170880   6.2374496  59.6845579  28.6332321
  68.3904123  21.9942045  15.4594672  69.0427494  22.6573324  15.2337468
  67.5667953  22.4784684  15.5175602  16.4305711  48.2531404  48.4203482
  15.9548640  47.6322556  47.8685951  15.9507883  48.2539320  49.2486238
  59.7136068  80.8429909  39.8701763  59.9981308  80.6762218  40.7687664
  58.9364719  80.2952385  39.7594547  19.7249162  49.7420597  39.0797162
  19.2613554  48.9770794  39.4205189  19.8341513  49.5597696  38.1464052
  81.3802338  59.7829199  37.4519682  81.5912342  60.6763411  37.1808362
  80.4265881  59.7318935  37.3872447   0.6376433  39.9582124  56.7138290
   1.2204176  40.6940222  56.9014263   1.2132241  39.1934752  56.7032003
   8.0946046  45.8027935   6.2003058   8.4186870  44.9048471   6.1303002
   7.9357839  45.9278440   7.1359175  34.4042110  53.6760807  46.9144106
  33.6260533  53.1859016  46.6490316  34.8382902  53.1094217  47.5521469
  71.0098982  67.6497269  15.9367585  70.1420355  67.2683001  16.0692632
  70.9445143  68.1086254  15.0992811  83.4728718  28.9401865   4.7296801
  84.4216728  28.8413048   4.6506879  83.1531620  28.9113808   3.8279119
  11.2475657  41.0546827  39.7940421  12.1627259  41.2431192  39.5861840
  11.1226940  41.4135695  40.6725836  43.8488531  67.5317049  35.4531813
  43.2528877  68.2514000  35.6607771  43.6150694  67.2770262  34.5605946
  33.3023024  65.7066107  52.5072336  33.1092525  66.5337610  52.9485703
  32.4493527  65.3878260  52.2121286  79.2585754  47.3461437   5.3198665
  78.8663483  47.2143793   6.1830169  79.3474245  46.4636612   4.9599153
  25.6163311  80.8202362  51.7417002  24.9180150  80.7180786  51.0950565
  25.1858807  81.2186527  52.4981451  68.9787483  55.6574011  16.9034493
  68.9963388  56.5365458  17.2816384  68.3602381  55.1735497  17.4507737
  50.0001717  61.7287922  40.8087921  49.4843006  61.4411545  40.0555468
  49.6764183  61.1988878  41.5372324  14.0015209  75.5965471  45.4285049
  13.5205889  75.1284647  46.1110210  14.8919320  75.6718016  45.7716322
  17.2275257  61.4096546  49.1271257  16.7792737  61.4078951  49.9728775
  16.7730486  60.7416964  48.6137867   1.3811584   5.8765930   8.3636117
   0.8720918   6.6530180   8.1307030   0.9426522   5.1574159   7.9089379
  45.5829048  50.4635572  63.9870214  46.3820171  50.8579636  64.3364477
  45.4242754  49.7054195  64.5494270  29.3448663   8.8149321  29.6786523
  28.4044862   8.7510228  29.8454785  29.4821596   9.7285604  29.4283199
  12.6901436  79.3951988  25.0176287  12.9642344  80.1368332  25.5571508
  11.7439318  79.5045900  24.9230289  79.4578362  35.2850771  13.8853347
  80.4146385  35.2747416  13.8595176  79.2142916  36.0849071  13.4192967
  85.7350731   8.9329576  69.0251446  85.8233070   8.5006398  69.8745871
  86.5987492   8.8466758  68.6216164  61.0013437  35.1378107  68.4760571
  61.2021589  34.4172096  67.8788662  61.7483807  35.1688337  69.0737247
   2.8240085  55.5820179  26.5776110   3.2376477  55.2395821  27.3699951
   2.8755668  54.8612356  25.9498763  83.1962013  61.7492437  39.6974659
  82.5497818  62.2868347  40.1550436  83.1936550  62.0832491  38.8004327
  25.3811026  67.2836351  39.8783779  24.6203852  67.2974348  39.2975569
  25.2391362  68.0173731  40.4764652   7.4211246  35.1822758  50.6125069
   7.7002352  34.8601031  51.4695549   8.1788492  35.6626177  50.2788067
  22.1198177  15.7541203  63.1036043  21.7794704  16.4235997  63.6970663
  23.0474138  15.9694088  63.0064011  63.4473181   9.2178607  47.8815126
  63.3580875   8.3201540  47.5615263  62.7698946   9.7070271  47.4145603
  16.5395749  77.8776550  42.6311922  16.9517124  78.0864429  41.7928696
  15.7592165  78.4312868  42.6589060  60.3439522   1.0409702  29.9183273
  60.9013033   0.2643108  29.9672318  60.9071541   1.7585856  30.2082586
  43.9390898  57.6237011  17.7400637  44.2595577  58.3796453  17.2480512
  43.5420322  57.9999828  18.5255504  83.5885143  68.0213785   1.6048856
  82.6985359  67.6713896   1.6458614  84.0938377  67.4603224   2.1931797
   8.9900661  66.7192936  57.9773235   8.4266865  66.7496300  57.2040749
   8.6960751  65.9452820  58.4576464  59.7658205  48.2894325  23.6078262
  59.0900230  47.6221180  23.7270737  59.4545031  48.8168049  22.8721690
  14.6085858  72.3199368  26.7823005  14.7731316  73.2503176  26.9357562
  15.4798698  71.9250631  26.7481446  13.6365867  32.1875954  59.9832153
  12.8553164  32.3438549  60.5137157  13.3947372  31.4610314  59.4088888
  58.6068487   3.0783921  12.3335087  58.5242414   2.1852270  12.6676702
  58.0802774   3.0847299  11.5341902  43.6545801  61.6206551  28.5560513
  43.6846876  61.2215090  29.4255376  44.4839001  62.0925951  28.4803104
  42.3191118  22.1587443  54.4471598  43.0561113  22.0345354  53.8491344
  41.7128563  22.7222204  53.9663506  45.9853411   4.6634120  15.3799760
  46.4080954   4.0549850  14.7739017  46.1308527   5.5267501  14.9930573
  29.2652917  64.2858982  15.7994652  28.8568163  63.6696815  16.4074576
  28.6338735  64.3717718  15.0852060   5.6778306  72.8361654  19.6565962
   5.1052219  73.0708456  18.9263391   6.4078116  73.4523678  19.5961785
  24.6913910  51.4246464  20.5762959  24.4213963  51.0413361  19.7417855
  25.5328584  51.0109901  20.7687807  37.9066896   4.0985706  68.2480001
  37.4304652   4.5102310  67.5269032  38.8103938   4.0430391  67.9374123
  16.3252318  41.4493132  13.8982403  16.7519712  41.2262487  13.0709743
  15.7863009  40.6853056  14.1033709  59.7609472  22.0003653  20.9889030
  59.4109535  22.7047038  21.5344691  59.0126181  21.4244747  20.8320928
  43.8928413  10.2736223  59.3375254  44.7107410  10.7630563  59.2496109
  43.8565779   9.7250527  58.5539532  17.2239208  78.2233906  23.9316106
  17.5631225  77.3896313  23.6060071  16.3756037  78.3220530  23.4993410
  32.8123212   0.8174575  30.1113629  33.2742572   1.6476168  29.9943900
  32.1314144   1.0109667  30.7556868  54.9701500  22.2768688  12.5556242
  54.3842649  21.5282226  12.4438226  54.6875668  22.9036999  11.8896961
  84.7321987  42.7657127  35.9894514  84.7881889  41.8696213  35.6576085
  83.8441849  42.8363609  36.3396955  52.0416307  17.7987337  36.5037298
  52.5666094  17.1271992  36.0682178  51.8966246  18.4634435  35.8304071
  29.2394757   0.4793190  65.3506374  29.3053699  -0.3075568  64.8096085
  29.6728063   0.2430568  66.1707830  53.4887171  78.4040642  52.6746988
  54.3162251  78.1104851  53.0558443  53.4140348  79.3203926  52.9411411
  43.4476471  12.0538914  37.5724196  43.3583117  11.8976140  38.5125422
  43.5529518  13.0022240  37.4962068  11.6163230  47.1415758  40.8512163
  11.0903013  46.3928509  41.1321783  11.3224113  47.8629971  41.4074516
  52.0716190  52.6612806  12.2748888  52.1649981  52.8821993  13.2015526
  52.0603609  53.5071325  11.8269658  43.6674070  42.7975702   3.5184813
  43.9086437  41.9280291   3.8377586  43.3695173  42.6490545   2.6210204
  22.5292683  71.5886784  39.6772456  23.0462122  72.2334290  40.1602507
  21.7932081  72.0881128  39.3236828   8.7152886  71.9823742   6.1080414
   8.6955297  71.0980892   5.7421464   8.9403641  72.5436258   5.3660393
  64.2436790  10.3280151   0.0048014  64.9238586  10.8504009  -0.4202829
  64.7222614   9.7477204   0.5967896  16.0569942  73.2246161  39.8143363
  16.2746632  73.9767361  39.2637277  15.9432685  73.5938406  40.6901026
  35.1380658   1.1964726  26.1758900  35.2961683   1.9101521  26.7938685
  34.4836712   0.6468482  26.6070652  60.1857662  49.7203445  14.6349442
  60.0360823  49.6152830  13.6953747  59.3155956  49.8820114  14.9994993
  83.3544445  73.0784321  23.0083704  82.9053783  73.8302517  22.6219368
  84.0398216  72.8585529  22.3773861  54.3303823  80.2649212  17.9120624
  54.4018126  80.1666546  18.8615227  53.9526081  79.4376802  17.6134086
  66.6184521  75.3237963  22.5552964  67.3325968  75.4329824  23.1832361
  66.6730881  76.0969448  21.9936180   6.6231138  22.3193669  11.2082291
   6.3147038  21.6651464  11.8352151   6.5589404  23.1506586  11.6784072
  45.8562613  51.3938856  27.9307342  45.0948477  51.2341261  28.4883738
  46.4316034  51.9436407  28.4626913  32.9920125  57.5376797   0.8400636
  32.1307111  57.9403114   0.9508654  32.8853703  56.6477156   1.1759521
  21.8810272  54.1128635  47.9813480  21.9263339  54.3869591  48.8973427
  22.7813411  54.1860390  47.6646328  12.0222616  64.7418451  12.4258375
  11.2209523  64.2330837  12.3021626  12.1086824  64.8255157  13.3754504
   0.7484812  13.3595622  38.1196380   0.5582979  13.7163424  37.2520137
   1.6565099  13.0621481  38.0625343  70.4141998   8.2781911  19.3242562
  70.9640694   8.9034790  19.7963715  70.4626799   8.5588866  18.4104228
  25.6092978  59.7697735  46.7901564  26.1446524  60.4186487  46.3334370
  25.0261831  59.4224691  46.1151838  37.3338151  58.7737226  41.6087961
  37.8400373  59.5082140  41.2616682  37.7733397  57.9960871  41.2648106
  31.2968588  71.9965935  32.8217840  31.9311094  72.5175524  33.3142900
  30.6028771  72.6156759  32.5951505  44.3568563   1.9874114  24.6397305
  44.9121428   1.9238856  25.4168081  43.4690762   1.8433112  24.9673176
  35.2113557  58.9963913  43.2771921  35.6745982  58.6510563  42.5140524
  35.7156563  59.7682238  43.5344648  86.1708927  44.1826725  58.7189627
  85.4176331  43.6390829  58.9499187  85.8966827  45.0747585  58.9316130
  28.8873029  69.0521574  56.7589426  28.9552855  68.8329601  57.6882267
  29.7842836  69.2569923  56.4949322  60.3186893  55.0719309   4.2878810
  60.9744740  54.8210096   4.9384302  60.5770016  55.9521723   4.0145963
  42.7981329  50.0665855  11.0246885  43.0752468  49.1622019  11.1714017
  42.5503159  50.0942278  10.1005387   2.5846106  54.8257208  59.5753050
   3.1137514  55.1490736  58.8461351   2.1804440  55.6108952  59.9446106
  80.9739304  40.3215122   8.0630344  81.0313988  41.2743044   7.9914910
  81.7968273  40.0033855   7.6917279  36.4535499  60.0775051  20.9721231
  36.6635036  59.1566944  21.1278749  37.0314789  60.3368759  20.2545214
  22.6307273  46.5601444   4.5848620  22.4612641  47.0019817   5.4169035
  22.2415829  45.6920815   4.6910277  52.6425362   7.3338342  50.9912443
  52.5778532   7.2718978  50.0382423  53.3349037   7.9771316  51.1430120
  37.1008992  26.8498588  15.8827674  37.3204327  27.1935010  16.7487621
  37.8958273  26.4012647  15.5945218  19.9777949  47.7111864  24.8123717
  19.6227157  48.0440283  25.6366110  19.3467283  47.9911089  24.1493249
  41.1709976  51.2585974  24.0257931  40.5227375  50.9007025  24.6323419
  41.9499922  50.7193422  24.1621876  67.5127745  29.0209889  45.5782080
  68.1075478  28.3021712  45.7921600  66.7069387  28.5888886  45.2951002
  48.5190821  54.2249727  31.6083121  49.1681862  54.8295593  31.2486315
  47.7903509  54.7860146  31.8736577   0.4668168  10.8899379  13.7172997
  -0.0744300  10.4850543  14.3950558   1.2923452  10.4065156  13.7494993
  23.8980603  64.0290165  27.6396060  24.8115063  64.2467165  27.4539900
  23.6149764  64.6965265  28.2645273  45.8783913  63.5807800  19.3222606
  46.1565781  64.1643190  18.6163402  45.1450157  63.0895758  18.9519739
  82.7464104   3.0316800  29.4110680  82.0660400   2.6480657  29.9643993
  82.9626751   3.8608885  29.8375344  36.1795926  74.4041538  12.4459362
  36.5268111  73.6153507  12.8624237  36.2834167  74.2451429  11.5077627
  24.8619390  67.8636360  54.7775269  24.2669225  67.4181032  55.3805923
  24.4797301  68.7337208  54.6630621  72.6102638  54.2265797  13.2601058
  72.3178530  54.6647263  12.4608850  73.2913303  53.6216259  12.9661334
  18.4143400  48.6654043   1.1712111  19.2681348  48.9691305   1.4794587
  18.5527050  47.7439308   0.9521707   5.3034407  34.0739083   8.4351784
   6.0185409  33.9038134   7.8220463   4.9807239  33.2049131   8.6737859
  69.5159483  37.3791766  18.1614017  68.9016104  37.9191566  17.6641655
  70.2854586  37.9365897  18.2770729  63.1091166  31.4466667  69.6190596
  62.2377920  31.3496113  69.2348623  62.9535580  31.4675379  70.5633068
  67.3600101  45.5875492  32.0566940  66.6530275  45.6310701  31.4128661
  67.7814245  46.4456129  32.0080352  31.3888907  76.5574551  28.0850840
  31.1248446  76.2763929  28.9611626  31.5750694  75.7428646  27.6181674
  46.0154390   8.2046008  45.3398657  46.0469818   7.9985011  46.2740850
  45.1264000   8.5288632  45.1960182  32.8468132  76.6763258  17.1802175
  31.9260955  76.7917490  17.4151361  32.9256248  77.0789194  16.3153839
  42.2435808  46.8457985  29.7313213  42.5301600  47.4113226  30.4484582
  41.3362932  46.6285658  29.9455070  69.9990082  45.3445482  67.0775127
  70.5137062  44.5375204  67.0831156  69.7754383  45.4924202  67.9964161
   7.5252724  72.1843958  13.7132299   6.8454933  72.6662350  13.2421041
   7.0802683  71.8362665  14.4858932   1.1659358  18.1091559  66.1837578
   1.7543092  18.6830986  66.6743088   0.2935088  18.3194864  66.5167236
  53.5033751  53.0140162  20.6490636  53.4264135  53.9667559  20.5981636
  53.9352989  52.8530931  21.4879799  15.6354547  29.4560599  61.4390755
  15.4974842  28.9827609  60.6185961  15.3858578  28.8319087  62.1205187
  49.6706057  45.3509808  64.3251228  50.1000452  45.2130604  63.4808540
  50.1683187  44.8100185  64.9382114  11.4506304  41.8500662  30.1566815
  12.1148646  42.4809790  30.4341292  10.6174672  42.2924614  30.3190351
  25.1237702  20.4924989  27.1521640  25.8326840  19.8521042  27.0924497
  25.5690956  21.3358641  27.2337317  77.8087759  54.7896624  10.0606108
  78.4756851  55.4206181   9.7897649  77.5436306  55.0810385  10.9329820
  35.1008105  61.8500662  49.1762257  34.4307685  61.9594479  48.5014582
  35.9231758  62.0592308  48.7332869  21.7160034  44.1878510  31.8226576
  22.3261023  44.3286896  31.0986543  21.1214137  43.5078430  31.5059900
  28.0676699  53.2983923   7.7197474  27.2918725  53.5091639   8.2393098
  27.9787731  52.3656178   7.5241512  38.1732202  20.6438088  11.8967307
  38.0557966  20.5439472  10.9520245  37.3576951  20.3156233  12.2754705
   8.1115270  17.1606421  53.5523796   8.1594759  16.2186611  53.3892775
   7.6583070  17.2355485  54.3921518  20.0202560  80.5297852   4.9618950
  20.1623893  79.7599745   5.5127358  19.2067087  80.9124660   5.2904159
  22.9054165  19.6801996  25.9288120  22.9540968  19.3078983  25.0483251
  23.8149977  19.8687959  26.1597323  69.1678524  34.0548921   8.3117056
  69.0729952  34.2517376   7.3797792  68.2778645  33.8642359   8.6080271
   1.7288914  46.6313028  28.5737896   2.0925523  46.0313988  29.2250180
   2.4300990  47.2623301  28.4114695  19.5479143  47.8265095  20.3355789
  19.4475257  47.1572971  19.6585917  19.9002624  48.5858440  19.8713636
   7.5112885  46.9820023  30.5821013   6.8338162  47.3823118  30.0371122
   8.3308959  47.3558998  30.2585649  11.9661856  72.1312046  21.9122815
  12.4920702  72.3379660  22.6848912  12.4388385  72.5366354  21.1853313
  39.9693251  75.1768446  26.8548250  40.4693031  75.6132078  26.1650109
  40.2963591  74.2772436  26.8551445  78.2743359  18.6593091  38.4274745
  78.8056517  18.5622418  37.6372123  77.9175806  17.7851748  38.5850930
  74.9776316  34.5916295  56.8664980  75.6508446  34.0465021  57.2737455
  74.8770618  34.2301297  55.9859085   0.3406411   8.2637519   7.5715345
   0.3858608   8.9527458   8.2344633  -0.3498052   8.5511470   6.9741064
  74.7011137  15.7838106  31.9948721  74.8125505  14.9194980  31.5989208
  73.8914013  15.7130611  32.5004339  48.3729649  11.2421310  62.5810051
  48.7513876  10.7516289  61.8513203  49.0432596  11.8859231  62.8100586
   4.6394622  51.3727188  18.9281118   3.9620525  51.5184879  19.5884895
   5.4622394  51.5382385  19.3884063  42.9593468  16.1268866  25.2005148
  43.7446833  15.5803001  25.2273726  43.0871677  16.7644954  25.9029031
  58.6059618  38.0088902  18.5427701  58.6460352  37.0697761  18.7235713
  59.3409538  38.1704926  17.9512417  69.9092865   0.9651157  37.0539570
  70.5408621   0.9375326  36.3352203  69.4271421   0.1414488  36.9808698
  40.1943445  75.0102854  19.0763962  40.6384706  74.1624689  19.0902126
  39.3824601  74.8475695  18.5961926  47.0666790  54.1035748  39.2261195
  47.0666599  54.2126942  40.1770782  46.2381601  53.6637497  39.0354848
  10.0090814  10.8953631  33.6875081   9.1892093  11.3631678  33.8462591
  10.3674102  11.3011765  32.8981113  29.2719984  78.6386967  48.9725208
  30.1437521  78.9197445  49.2505360  28.7146831  79.4020939  49.1237020
  77.8784943  39.2522979  61.3525581  78.0322838  40.0713730  61.8234015
  78.6185217  38.6949992  61.5933990  56.4614964   5.6055254  46.6999054
  56.5572596   4.9621907  45.9976387  57.2311640   5.4724723  47.2532034
  74.1554928  62.5059509  34.0337181  75.0265789  62.2416162  33.7377954
  73.5540199  61.9708633  33.5158944  26.5349150  57.8011322  21.1151576
  27.2622514  58.1834412  21.6061306  26.7509198  57.9685974  20.1978087
  72.1307468  13.0882597  37.1174788  72.7110100  13.8413215  37.2289395
  72.2056913  12.6043415  37.9399371  83.9755154  73.3630705  27.8239369
  84.1145897  73.2378387  28.7626648  83.9330196  74.3128347  27.7127147
  56.4948463  68.2837105  33.0264664  57.1304941  68.7977552  32.5285316
  57.0253134  67.7788544  33.6428714  49.4841814   6.6353130  26.1323857
  48.9527035   6.9749922  26.8523717  48.8754368   6.5668976  25.3968740
   5.0699991  48.3734798   3.4087095   4.8809379  49.2882490   3.6177367
   4.2238933  47.9316425   3.4802374  48.3157873  65.9477901  29.1810226
  48.8361979  65.4282570  28.5682535  47.5085163  65.4462004  29.2948341
  67.6025057  18.0365300   0.6911720  67.7408218  17.3875892   0.0012609
  67.3617125  17.5205159   1.4605734   3.9551491  29.9273252  46.1387444
   4.6846142  30.4291201  45.7749939   3.7759098  30.3425479  46.9823694
  82.9704475  29.8060822  25.2741981  82.2593784  30.4136920  25.4777098
  83.7684155  30.2963495  25.4720020   8.4779716  78.6907434  34.7759056
   8.9573681  78.6168051  35.6010985   8.7070101  77.8961563  34.2938209
  54.4535923  64.4472313  19.0509868  54.8533201  65.3164577  19.0210736
  53.5328722  64.6138334  19.2528582  54.5321846   0.9184749  12.1604967
  54.5414257   0.0291279  12.5143445  53.7356997   0.9573247  11.6310287
  77.0919657  69.2888832   7.3494583  77.6329708  69.9942017   7.7045280
  77.0530605  69.4667578   6.4097351  47.9472876  49.4000721  27.0738745
  47.8610563  49.3731356  28.0268025  47.4444580  50.1704836  26.8095613
  55.8751440   7.4743050  53.3874178  55.4258728   7.5318772  52.5441647
  56.7624950   7.7850366  53.2077408  63.7201405  79.6552086  51.0812759
  62.8142023  79.4241381  51.2864923  63.8994884  79.2091417  50.2535725
  60.9002209   3.5453218  16.5970635  60.0541496   3.3228484  16.2085974
  60.6816149   3.9089456  17.4550974  32.6770139  41.5460157  10.7949626
  32.7610302  40.9242868  11.5178943  32.2133970  41.0595274  10.1133323
  25.7361245  70.7672977  19.9046230  25.9936070  71.5399504  20.4075599
  26.3629174  70.0922966  20.1648784  72.6083326  42.3929787   2.4426939
  72.9176855  42.0044041   3.2609493  72.9168272  43.2984972   2.4758950
  67.5417900  16.5290046  45.8076048  67.8332281  15.8747375  45.1726007
  67.5902271  16.0812330  46.6522264  32.3358130  58.1394625  31.0103679
  32.2764826  57.2130728  30.7768893  32.8649616  58.5285425  30.3140521
  66.6039228  17.3863769  41.8527746  67.0613623  16.9138169  41.1573172
  66.7058086  18.3097434  41.6220284  81.6894341   1.5960354  19.5837438
  82.0897579   0.9049610  20.1113653  81.7240047   1.2631336  18.6869645
  72.3667097  21.6634035  35.9476018  72.2793531  20.7186294  36.0740972
  73.0395317  21.9278526  36.5749812  81.4574051  25.2361870  26.9482589
  81.9869995  24.8322177  27.6356959  81.9000530  26.0637569  26.7600632
  15.2586746  27.7306604  19.8968768  14.4221044  28.1206417  20.1504469
  15.2339363  27.7117682  18.9401829  13.6292911  75.0690699  63.3200693
  12.8860235  75.3191328  63.8689327  14.1689134  74.5160627  63.8850641
  76.8136311   5.1569194  53.5296106  77.7341461   4.9333811  53.3921146
  76.7079496   6.0083741  53.1052446  46.2288189  50.2108335  15.5978119
  46.0914755  50.9723473  16.1612546  45.9661531  50.5071831  14.7263670
  40.2806139  75.2018213  41.4403009  40.6744480  74.8637486  40.6360435
  39.3764472  74.8887205  41.4142179   8.6410797  73.8311911  26.3728571
   9.5275998  73.4765577  26.3054156   8.3537257  73.9319086  25.4653811
  59.3427229  66.5431166  34.3759537  59.1374874  67.1541166  35.0836205
  58.8884163  65.7358742  34.6172023  74.0162516  68.2435083  52.9006910
  73.4138680  67.6907158  53.3984661  74.5239305  67.6284122  52.3714018
  64.8512745  67.3116779  47.5040436  63.9186716  67.3954296  47.7027035
  64.9186182  66.4940929  47.0108366  49.1578865  17.4492788  25.6615734
  49.4490957  17.9688513  24.9122572  49.2866945  16.5411305  25.3878856
  22.4520802  80.7192326  38.9900208  21.5828848  80.3183270  38.9907122
  23.0476737  80.0001621  39.2008305  50.0216675   5.7792085  13.2904840
  50.8901024   5.3898132  13.3925784  49.4462156   5.2219868  13.8145018
   0.3812137  20.9151196  24.6533513  -0.1190685  20.7048845  23.8648391
   0.7321186  21.7902207  24.4881463  16.7517436  60.4498100  20.9057093
  17.0321476  59.7146463  21.4508128  17.5549853  60.7556391  20.4843998
  86.2077999   7.0190650  17.8865540  85.7030010   7.8021657  17.6670909
  85.5865669   6.2977695  17.7863467  40.6109810  19.1381562  10.9877729
  39.8873949  19.5138812  11.4892542  40.7651997  19.7665095  10.2823496
   2.3091994   6.9858378  18.8218188   2.7657342   6.9054526  17.9843545
   1.3868137   7.0794553  18.5837591  63.4562492  51.9151592  60.0310850
  64.3557358  51.5979433  59.9502468  63.4793377  52.7976561  59.6610928
  29.5027852  54.9982738  23.7941003  29.2880154  54.0662861  23.7553000
  29.3109965  55.2508640  24.6972322  58.2980251  78.4258318  41.5191507
  57.5052643  78.9399433  41.6722870  59.0049648  78.9638472  41.8755245
  66.9276428  32.8728914  48.4265137  66.0673571  32.7667236  48.8325453
  66.8854904  32.3392057  47.6330185  46.5489578   5.4182208  52.2516632
  45.9933901   5.1457733  52.9819727  46.7171621   4.6114740  51.7647362
   3.8187927  79.7293234   0.5784502   3.3559036  79.1381788   1.1721790
   3.5413155  79.4561720  -0.2959791  10.3286111  15.1466715  21.4392114
  10.4144478  14.2353213  21.1593795  11.1974573  15.3795862  21.7664528
  33.0804896  35.7490921  26.5157342  33.7998676  36.2576914  26.1414957
  32.5191069  36.4010620  26.9352746  83.0867290  36.3305378  65.8721304
  82.7929115  37.0848465  65.3613281  82.5410366  35.6063771  65.5654669
  43.7748069  81.7441930  25.9950924  42.9340142  81.6380707  26.4401078
  43.9811105  80.8710527  25.6614804  18.6180568  57.8881884  34.2150450
  18.1296062  58.7067223  34.3025279  18.6069298  57.5076008  35.0932598
  76.3214636   3.3634561  51.2511492  76.3730145   4.1707772  51.7628193
  75.8541822   3.6143371  50.4543209   9.2643619  38.5521698   6.7341775
   8.3781469  38.4213901   7.0714480   9.5449406  39.3845773   7.1144485
  25.7601261  74.5308876  44.1577530  24.9004745  74.2257357  44.4477749
  25.8348489  75.4144144  44.5183516  75.2669907  79.2230749   5.2208716
  75.7488346  79.8241854   5.7889599  74.6071291  78.8304663   5.7924235
   9.8706573   2.3757370   9.9272770  10.6103873   1.7719267   9.8606056
  10.1185846   3.1197619   9.3784684  72.4679470  17.3316991  33.2261133
  72.1648216  17.0046377  34.0730977  72.6669073  18.2547426  33.3830738
  29.5971179  57.7273083  25.7209826  30.3392124  57.4460649  26.2561703
  29.9493361  57.7812767  24.8325777  79.9514914  24.6670222  31.5821004
  80.0079441  23.7414551  31.8195176  79.4641304  24.6736765  30.7582879
  63.9653444  68.3875465  10.1805270  64.6251345  68.2213163   9.5072663
  63.6511517  67.5178719  10.4278696  43.6915874  75.4963112  50.0209665
  43.2614708  74.8296833  50.5565453  43.0558681  76.2101650  49.9708939
  52.6961565  14.5376253  51.3368177  52.4181890  15.4375601  51.1662817
  53.4000874  14.6221626  51.9799042  59.1766787  74.7647953   9.7766340
  58.5040569  74.2170715  10.1813674  59.9634504  74.2196274   9.7799325
  35.0143814  66.6137934   7.8754199  35.6957293  66.1347294   8.3471173
  34.8796368  67.4087095   8.3913469  15.5606294   5.2989513  51.0024500
  16.2244022   5.3292555  50.3134537  15.3044343   6.2125659  51.1285639
  53.8479710  47.2258043  14.8978949  53.9200497  46.6175127  15.6334305
  54.6821308  47.1428013  14.4358146  57.9131174  74.1187382  31.3522983
  58.3467770  74.9141073  31.0431790  57.7837038  73.5940075  30.5622697
  19.9248815  65.5165291  46.3065529  19.6230555  64.9564552  45.5913925
  20.4074121  66.2200832  45.8724928  57.5877857  58.1987858  11.5916729
  56.9237518  57.5098562  11.6174841  58.2225275  57.9448605  12.2616434
  28.1374812  78.2445908  32.1313548  28.4178472  77.3405552  32.2739911
  27.8458381  78.5436249  32.9926062  77.9334402  33.9754820  23.3054829
  78.4675741  34.7697663  23.3122301  78.5248280  33.2918239  22.9906774
  45.9858942  55.7619762  55.8800459  46.9268799  55.7545710  55.7047892
  45.5949736  55.3558731  55.1064253  60.5853939  76.5091610  26.9282055
  60.2023077  75.6856251  27.2303009  60.8613729  76.9532824  27.7299690
   4.7233361  57.9772520  64.4858122   5.0508124  57.4144650  65.1874256
   4.2950615  57.3758888  63.8765717  85.0769806  46.6634226  17.0565748
  85.4774857  47.5311613  17.0031321  84.2683029  46.7412853  16.5504134
  56.7812300  74.9075794  20.9746695  56.6705990  75.6303835  21.5923643
  57.2586870  75.2918243  20.2393985  32.6168609  78.2865191  59.3373394
  32.6658988  77.9140711  60.2177429  33.4247327  78.0005503  58.9109612
  29.1865516  76.9494724  10.3025866  29.5892096  76.3371658   9.6868128
  28.2821250  76.6468906  10.3843665  27.0479465  80.2397633  40.3053904
  27.6738262  79.7243404  39.7966218  26.6124892  80.7945824  39.6582532
  31.6835856   5.6471640  45.3436375  31.9534302   4.9628779  44.7311258
  32.5051713   6.0061342  45.6788540  17.4863935  64.7231102  57.4292946
  17.2601247  63.8532639  57.7585268  16.6452086  65.1197386  57.2027397
  43.3868456  65.1654577  52.7707577  43.1415415  65.4627562  51.8945885
  44.3017387  65.4302406  52.8661203  64.2508936  13.6097813  12.9813862
  64.5699167  14.5006990  12.8374302  64.4273233  13.4387553  13.9065099
  31.0704994  71.4856243  45.5070591  31.6872549  71.8211699  44.8564768
  30.2982736  71.2368917  44.9990892  56.3554668  27.8764462  27.3127222
  56.6998148  27.1807480  26.7526650  56.1186600  28.5775423  26.7055845
  29.2444992  72.3011398  49.3670988  29.8128128  71.5324879  49.3178129
  29.3774676  72.7512074  48.5328341  72.0838833  75.3715611  51.9653225
  71.9198990  75.4915285  51.0299349  71.2460518  75.5712843  52.3829126
  61.3991165  45.6887722   8.5212988  61.5382004  46.6154528   8.3259720
  60.9081841  45.6882572   9.3430126  32.9106998  72.2045135  43.5984230
  33.2286167  73.0929089  43.7594080  32.4328375  72.2673130  42.7714205
  11.7655671  15.1115549   6.8037087  11.1451578  15.8402765   6.8207622
  12.5434053  15.4691923   6.3755786  58.8054657  15.3669286  36.2886024
  59.3061113  15.9471953  35.7151270  59.1243982  14.4891810  36.0786629
  54.9400759  74.7953463  34.5331311  54.9706507  74.1228676  35.2136207
  54.5950413  74.3421412  33.7638545  37.7381086  54.5117044  47.2730827
  37.4026489  54.3431044  46.3925886  38.0231953  53.6543036  47.5890207
  28.6463857  35.8865547  62.4304390  28.7749648  36.0908890  63.3566904
  28.5943604  34.9312258  62.4008942  59.7725725  77.6328707  10.3575110
  59.7363520  77.2176266   9.4958305  60.2040577  76.9868708  10.9167409
  47.7507353  60.6670523  28.2715845  47.0625353  60.4202414  28.8894010
  47.3363447  61.3094616  27.6955438  70.1026535  31.0954022  40.8319521
  70.7055855  30.4808378  41.2503004  69.7027206  31.5714860  41.5597105
  86.5694714  13.7467647  41.9917870  86.1475086  14.3945873  41.4274216
  86.0353470  13.7368965  42.7860451  11.7164409  34.6285582   5.2890736
  12.5240469  35.0526023   5.5792308  11.0273552  35.2609563   5.4926991
  85.3270912  20.8459258  47.3357582  86.1214447  20.3448677  47.5206518
  85.6044292  21.7608166  47.3836565  11.1901903  16.4018917  41.7855263
  12.0462978  16.4560044  41.3608122  11.0218132  17.2904468  42.0991373
  69.7203636  65.1316595  32.9413509  70.0867271  65.5719280  32.1744251
  70.1236200  65.5752468  33.6875725  25.3543139  70.9289551  17.3265719
  24.9631929  71.7498589  17.0276093  25.2900243  70.9665918  18.2808697
  73.5984516  37.1775532   1.9947302  73.8865423  37.7509737   2.7049604
  74.1416264  37.4297309   1.2480047  13.8061333  62.0590115  50.5509281
  13.5603333  61.3039684  51.0854626  12.9828346  62.3566341  50.1638460
   1.3822311  15.4368496  10.4325092   0.7418407  16.1319268  10.5841649
   2.1760277  15.8976293  10.1608479  64.8288822  71.2806368  41.6230297
  65.2946997  71.6903400  40.8940649  63.9707279  71.7046499  41.6274643
  72.4017763  34.6901178  44.5398331  71.8841553  35.4912901  44.4597054
  71.8296623  34.0810180  45.0066423  62.0865774   9.6385831  31.4721560
  61.8218470   8.7773871  31.1489058  62.9749441   9.7577924  31.1362624
  38.6327529  10.8047032  30.2594328  38.6408257  11.6623223  30.6844711
  39.3043113  10.3023779  30.7208562  20.3929639  47.9714155  17.2181511
  20.3538918  47.1342945  17.6806748  20.8392930  47.7700233  16.3956773
   6.3122475  59.6701527  69.0922928   6.4156252  59.6023464  70.0414753
   5.6458503  60.3466129  68.9716578  14.7923017  17.4205720  27.3466396
  14.5817888  16.8570077  28.0911613  15.0842953  16.8164575  26.6639853
  52.1473980  68.6445475  13.1185889  52.9650116  69.0332270  12.8076744
  52.1528816  68.7988377  14.0632558  27.2039580  46.8505764  60.5285788
  27.4676943  45.9336662  60.6057119  28.0286551  47.3328066  60.4688883
  47.7915716  66.4774752  12.5304139  46.8847466  66.6723108  12.2938907
  48.2935476  66.6782236  11.7405081  26.6680264  45.3775597  17.6837766
  27.4503446  45.7048321  17.2398126  26.3507247  46.1243582  18.1915593
  63.7917614  75.7737637  29.8139668  62.9375410  76.0639668  29.4940829
  63.7287760  74.8188210  29.8325300  37.6850080  24.9244213  54.5726204
  37.5222158  25.6554151  55.1687574  36.9275975  24.3501115  54.6854401
  44.1908741  22.4630213  27.7095890  44.2546511  22.5268984  28.6625242
  43.3332491  22.0678544  27.5528932  40.8762121  24.2850351  64.0364075
  41.5112448  23.5846639  63.8865948  41.3796759  25.0919509  63.9284992
  29.9782372  48.3940172  17.5760353  29.1501212  48.0687952  17.2229290
  29.7340465  49.1653156  18.0875993  32.9775620  10.3223193   3.7458050
  33.1815290  10.9848726   3.0857649  32.0578575  10.4753184   3.9625210
  14.9134576  45.5038595  57.3748064  15.1418376  45.7583618  56.4807653
  14.0027273  45.2150822  57.3163891  29.3451905  73.8759327  32.1261287
  28.5383940  73.4145784  31.8970728  29.1387725  74.3275404  32.9444647
  76.9587755   4.1774130  43.3036470  76.2568092   4.6301791  42.8362226
  77.7635622   4.5720547  42.9677820  31.0938430  17.7259886  67.1769238
  30.5063629  18.2066059  67.7601099  31.9475126  18.1404686  67.3021746
  50.0035763  71.2629414   0.2769130  49.8248386  72.1944809   0.4054483
  49.1704941  70.8309507   0.4655807  68.2275963  65.1141310  17.6699173
  68.8582087  64.7980452  17.0228863  68.0083656  65.9990692  17.3782694
  52.2477102   7.2743487  48.2160759  51.5291119   6.6992217  47.9532528
  53.0243063   6.8873560  47.8118896  53.8081884  11.4958239  20.7548952
  54.5401049  11.8726552  20.2664995  53.9607286  10.5513561  20.7241869
  23.5856056  15.2102053  21.0837054  22.7161837  15.4638290  21.3935637
  24.1491151  15.9461629  21.3225651  73.9788437   7.4609065  26.0593963
  74.8693085   7.8019357  25.9757113  74.0382290   6.5574068  25.7489228
  26.2704110  19.4651580  52.5403166  26.3658309  19.7325635  53.4544373
  26.2151504  20.2880883  52.0545578  73.2803106   1.0905579  53.8161993
  72.9153299   1.7395484  53.2146740  73.7075663   0.4502503  53.2472610
  46.9583893  62.8569221  30.2384806  47.3814535  63.1534100  31.0442996
  47.4934626  62.1197796  29.9442792  68.8640308  73.8793087  21.9556642
  68.1826496  73.2704687  22.2407317  68.4040165  74.5128584  21.4049959
  77.7304649  13.7844169  25.1377487  78.2158184  13.2002831  24.5551229
  77.6567030  13.2971442  25.9583306   9.4849145  78.1489944  58.1538868
   9.7630620  78.2322502  59.0659904  10.2190304  78.4959364  57.6469946
  81.0771370   7.2024101  66.3782454  80.6075382   6.9895202  65.5717802
  81.9156551   6.7484933  66.2940884   5.6652218  76.9750977  58.1723690
   6.3125402  76.3473797  57.8511477   5.9812725  77.2213936  59.0416670
   7.4738276  40.1163673  62.5114202   7.5662267  40.0118971  63.4584045
   7.8136617  39.2995119  62.1460533  64.1130829   4.6985048  22.9296732
  63.8535690   3.9871690  22.3441076  64.3543291   5.4155326  22.3432398
  54.5402622   3.2711193  13.3533561  54.4138336   2.4400753  12.8955197
  55.3768444   3.1696349  13.8073003  78.0372810   1.5233541  47.8821182
  77.0870066   1.4773688  47.7767944  78.3128500   0.6109891  47.9709196
  36.4159656  71.7743349  30.0244236  36.5040112  72.6443624  29.6351528
  36.8602443  71.8439341  30.8694124  50.4832935   3.1055522  25.0952506
  50.2451706   3.7441242  25.7673788  50.2158308   3.5135958  24.2717242
  53.1043196  67.2217798  22.0396543  53.4097862  66.6971397  22.7797008
  52.2443199  67.5420046  22.3118567  54.8975182  24.2138076  30.6339478
  54.9380398  23.7883663  29.7774482  54.3555021  24.9896312  30.4906106
  51.7144871   1.0277200  32.0667124  51.2094021   0.4578123  31.4867759
  52.3909426   0.4579611  32.4327946  26.2125111  65.8895397  65.0942707
  25.9462166  66.1294603  65.9818268  25.3979492  65.6362247  64.6600437
  44.6392155  15.7142365  33.2316613  44.2989826  16.1948061  33.9863324
  44.0521383  14.9636459  33.1411719  44.5729303  68.0511570  46.8454361
  43.8827658  68.5607672  47.2699451  45.3722668  68.2950544  47.3121357
  42.7303267  32.1737075  28.4246993  42.6314306  32.1476078  27.4729800
  43.5456991  32.6542926  28.5676813  41.2962723  58.1899023   5.7940608
  41.8790054  58.0954027   5.0405860  41.0603046  59.1175461   5.7994902
  38.2599163  66.2758827  64.3822145  38.5885882  67.1734619  64.3315887
  38.9215708  65.8068514  64.8905993  63.5415506  12.8470600  47.2638941
  63.7833166  13.7653482  47.3844290  64.1391325  12.5288880  46.5872192
  20.4840589  73.2310867   7.6823008  20.1153135  72.6200104   8.3201426
  21.3912988  72.9457521   7.5739944  42.3479033  11.6467631  16.6466618
  42.8710938  10.8515036  16.5463221  41.5680981  11.3619125  17.1231019
  77.2963905  16.4177597  25.7963109  77.7318907  16.9002271  25.0936055
  77.3388004  15.5022144  25.5202484  81.7261791   1.2694041  27.3412466
  80.9169865   1.6105969  27.7220726  82.4091721   1.5254956  27.9610538
  69.6587324   9.4792539  36.9891477  70.2027464   8.7216663  36.7738819
  69.9646711   9.7561520  37.8528380  46.4182138  67.6666403  32.5438190
  46.4493513  66.9255161  33.1487989  45.4965591  67.7334690  32.2941661
  54.8716831  51.5351057  18.5896027  54.3618202  52.1115923  19.1587532
  55.3351498  50.9529161  19.1916716  47.6549387  48.1817961  12.9207003
  47.4290133  47.7870893  13.7629557  46.8231821  48.2340193  12.4498653
  40.6400490  50.7179403   3.1682006  40.5348110  51.4796066   2.5980967
  40.5258226  49.9660778   2.5869223  71.4757347   5.7684427  30.1599646
  71.0351610   4.9576709  30.4144764  70.9948254   6.4567834  30.6194663
  69.6718931  10.7455468  43.1395674  69.1954041  11.0235655  42.3573303
  68.9885330  10.4745352  43.7525940  70.3694963   1.9718401  41.4412022
  69.5422602   1.6511369  41.8004465  71.0049343   1.8346678  42.1437931
   6.7121649  30.5264640  44.3721104   7.4423373  30.3510904  43.7785387
   5.9558380  30.1214862  43.9476156  18.2600856   3.5839075  61.5645504
  19.0436375   3.2396078  61.1359024  17.5731373   3.5113937  60.9019232
  52.0721245  61.2116909  19.4866598  53.0043030  61.1733246  19.7006738
  51.7791080  60.3014040  19.5285344  49.2201328  26.9741607  12.8026783
  49.1396236  26.1095691  13.2054579  50.0611544  27.3069692  13.1159794
   3.5961583   7.1088868  54.8894405   4.3086207   6.4881897  54.7365904
   3.1019500   7.1128428  54.0697002  60.6545019  59.9374390  33.2051444
  60.6616735  58.9802694  33.2020855  61.4573717  60.1815033  33.6656523
  60.5650187  25.3587508  29.8192048  61.2035322  24.8926711  30.3589296
  60.0562191  25.8763123  30.4432964  33.8752055  27.9322720  69.8161221
  34.7784877  27.7184176  69.5825052  33.9165163  28.8354516  70.1304340
  79.3221807   1.9618614  28.8513160  79.1317034   2.8957230  28.7627029
  78.6672211   1.6416293  29.4715691   8.1715888   5.0159574   7.3234248
   7.3019952   4.8657626   7.6942074   8.1027699   5.8655262   6.8878472
  84.1191959  20.4551554  38.6077070  83.2270527  20.1212144  38.7014890
  84.3984604  20.6470346  39.5029330  28.8292408  72.6291990  69.7667551
  27.9292560  72.4827433  69.4755316  28.7441993  73.2027483  70.5283642
   6.2317467  20.2286744  48.4978771   5.8961606  19.8300672  49.3008232
   5.5452716  20.0744438  47.8488827  34.5129609  79.7575331  34.3689466
  33.9827228  80.3271103  34.9263144  34.7358513  80.3016376  33.6136317
  56.0924387  26.8284273  10.1031876  56.2572575  26.8444610  11.0459542
  55.7305098  25.9578061   9.9380893  71.9084883  31.0931396  37.5579929
  71.4000654  31.8937349  37.6875567  72.6312828  31.1648989  38.1814122
  12.1161640  18.4717810  66.9464922  11.2815654  18.0743968  66.6979694
  12.6690316  17.7313733  67.1962261  14.0705931  17.5004470  44.6154165
  13.9734697  17.9958594  45.4286575  13.4280217  16.7945838  44.6867657
  48.4996080  76.4142561  23.0058718  47.5729656  76.3196754  22.7853727
  48.7182045  75.6078053  23.4728694  19.3063617   1.0695111  25.0447774
  18.8800991   0.3127008  25.4469848  19.2076457   1.7704654  25.6890988
   2.8728348   2.7089122  62.1698809   2.9087356   2.5359201  61.2291288
   2.5192139   3.5958627  62.2369862   4.9633887  10.1552045  41.7529964
   5.2130520  10.8186793  42.3961926   5.3591597  10.4543221  40.9343815
  79.7439241  24.6499276  24.7188091  79.9896669  23.8085938  24.3340993
  80.2978611  24.7291112  25.4954123  84.7051907  41.2645006  53.1583881
  84.4612789  40.5353689  52.5882053  83.9477348  41.8493176  53.1366491
  65.5775356  58.7080240  34.2213893  65.6224680  58.5951853  35.1708531
  64.9337196  58.0608463  33.9334774  71.6887903  29.4872165  51.0579967
  72.2721481  29.4521785  50.2999115  71.2961626  28.6151934  51.0985899
  69.5700884  59.6553564  13.3467853  69.1687393  59.6783686  12.4780965
  69.6123314  58.7246752  13.5665262   8.1240594   6.5828943   1.7650625
   8.5495973   5.7258344   1.7406094   8.7992775   7.1940488   1.4704391
  68.4684658   9.0664792  48.8144970  69.2161417   8.5428381  49.1026163
  67.7355051   8.7474573  49.3410254  15.4154563   9.2509973   9.5380038
  14.5239985   9.5846301   9.6391165  15.7534361   9.1960090  10.4318595
  39.7294879  78.8212919  20.5953097  40.4374743  78.7115240  19.9605358
  38.9440536  78.9366627  20.0605035  27.9667711  69.0391159  19.3409884
  28.6853719  69.5507622  18.9694166  27.9870820  68.2124186  18.8589215
  57.7335358  17.5775647  45.4120874  57.7820015  17.3477626  44.4841480
  58.0324888  16.7916143  45.8694029  47.0664310  32.5122118  13.3166766
  46.4303160  31.9446969  13.7520063  46.7563295  33.4001613  13.4944737
  51.7988300  59.4776726  51.2710857  51.6069889  58.8985157  52.0086527
  50.9748793  59.9359465  51.1057901  31.4868879  23.0242038  68.7845325
  32.1748257  23.6016822  69.1154242  30.7204795  23.5908151  68.6962080
  29.3552756  10.3232265  40.5815744  28.6969948  10.9920275  40.3928900
  30.1746798  10.6947637  40.2548218  77.3660851  43.8605356  16.9332325
  77.5349760  44.8004055  16.9991839  77.0389318  43.6146736  17.7985406
  66.0695553  67.1722603   2.2881828  65.2095985  67.5795746   2.1842341
  66.2245417  66.7243910   1.4565450   7.3666602  23.2107973  54.0918303
   7.0326173  22.5797701  53.4542942   8.0261660  22.7248096  54.5869064
  13.1835175  39.4866896   6.2341470  12.4424207  38.9054632   6.4049786
  12.8888929  40.3457117   6.5366560  14.5219219  23.5260940  37.1072936
  15.0647092  22.7451825  37.2158909  14.9342561  24.0064311  36.3893199
  51.6015434  78.2741642  15.7977772  51.0299158  78.3738041  15.0364959
  51.9556570  79.1507149  15.9477580  26.9227600  35.7206678  37.1074224
  26.2895799  35.6848979  37.8243828  26.3871646  35.8094001  36.3190722
  83.6392498  12.4501872  32.7535033  83.5601044  12.8796041  33.6053061
  84.5152569  12.0644331  32.7602267  33.4936953  56.6755152  24.4182944
  34.2983198  57.1249580  24.1598082  32.8478813  56.9462967  23.7657380
   3.3704415  20.8709884  69.7356462   2.6182795  20.6463218  70.2833748
   3.7413812  21.6517854  70.1467323  78.5787582  10.8894384  40.3488541
  78.1811428  11.2064433  41.1598063  77.8424406  10.5585599  39.8344707
  85.0854492  56.4446497   7.3811996  85.9668255  56.6372776   7.7010447
  85.0714207  55.4933500   7.2760171  68.4591866  81.0816383  34.5004749
  67.9121113  80.4559708  34.9753284  68.2726097  80.9105873  33.5773468
  25.5192065  24.5618558   5.6346428  24.8510957  24.4413018   6.3094205
  26.1004066  25.2340531   5.9904367  84.0400887  21.5654111  44.2584133
  83.7163544  21.3981795  45.1435471  84.5622444  20.7922721  44.0443039
  11.3010955   8.2699710  13.3360946  10.8656836   9.0328151  12.9556775
  11.5192258   8.5389441  14.2284548  68.5785723  29.5547366  19.7344148
  69.2409182  30.0294638  19.2322540  68.9320278  29.5188594  20.6232429
  46.6309261   7.7743524   5.3727168  46.3125515   7.6967198   4.4733602
  45.9565020   8.2834029   5.8224404  47.8014278  28.7057257  66.4379883
  46.8579912  28.7654376  66.5882874  48.1811094  29.3433046  67.0426130
  31.8277740   5.0644600  14.1128433  31.6391015   5.9706897  14.3565273
  32.6447463   5.1149994  13.6166203  19.1371000  12.4748564  49.3647146
  19.4156170  11.7039323  49.8590183  19.8929584  13.0615962  49.3901062
  40.2221441  79.6637392  23.2713819  40.0932455  79.3103266  22.3912024
  41.1720657  79.7378635  23.3629799  26.9855475   2.5568151  25.4601073
  27.9267240   2.7305543  25.4753351  26.5864873   3.4127197  25.3038669
  30.6830072  76.7433882  19.0514898  30.4945254  76.4846468  19.9535763
  29.9227524  77.2613955  18.7870765  27.7519798  25.1548266  46.7615604
  26.9007778  24.7321582  46.6473818  27.5980902  26.0702491  46.5280008
  66.7016888  27.7233577  18.8599372  67.5966787  28.0627656  18.8651907
  66.8026733  26.7839718  18.7063503   6.2853432  33.1111336  45.2818584
   6.4350235  32.2245169  44.9536180   6.9783735  33.6353326  44.8804140
   2.0011631  30.0920367  27.6060343   2.6679924  29.4117832  27.5120854
   1.5085845  30.0594592  26.7859507  82.6371670   9.9729270   4.1491416
  83.1535625  10.6840467   4.5284426  82.0749664  10.4026210   3.5045296
  37.8144526  14.5838833  21.8266916  38.7660909  14.5051110  21.7602587
  37.6447773  15.5214882  21.7353725  60.8485985  55.9337330  10.6557322
  60.9922409  56.8663692  10.4951453  60.6068277  55.5779171   9.8006457
  83.1645966  56.1176968  20.1750827  83.6363888  55.6983280  20.8946466
  82.7705765  56.8962479  20.5685687  28.3524370  34.1103649  16.5683484
  28.0552340  33.3005571  16.1534822  27.5589347  34.4927549  16.9429994
  15.6860709  15.8734787  25.4811263  16.2318528  15.0879157  25.4458237
  16.2710154  16.5835953  25.2169180  59.2952299  77.9828978  14.3946040
  60.2415895  78.0590487  14.2728269  58.9350653  78.7574577  13.9626551
  69.1090441  78.1539154   9.9008733  69.6896982  78.4142256   9.1858137
  69.1297007  78.8939190  10.5076623   3.7599143   6.7483175  15.6476367
   2.9291391   7.0034069  15.2464211   4.3482122   6.6008091  14.9071097
  13.8874805  40.3475809  23.0290389  14.6955490  40.8485556  22.9182124
  13.7496638  40.3217173  23.9759111  63.8989878  59.9369764  61.5360212
  64.5289993  59.6628284  62.2024775  63.8908005  60.8924580  61.5928030
  12.1560943   0.0843361  40.3262424  12.7181149  -0.2462822  39.6254897
  12.4181235   0.9988689  40.4320812  69.6180868  15.5494869   2.1197462
  70.0159788  14.8607552   1.5872411  68.7044239  15.2805889   2.2153673
  76.8903351  16.0035753  22.3172283  77.1709538  16.7856753  22.7924156
  75.9549570  16.1384356  22.1651816  35.6477714  13.5442054   3.5295248
  34.6972632  13.5291004   3.4175557  35.7821083  13.9616477   4.3803641
  79.3112135  52.2502375  68.6590815  80.0918102  52.7676296  68.4610605
  79.6089029  51.6024733  69.2978430  79.2482758  65.7307577  61.0530615
  79.1565323  66.2190437  60.2348948  78.6078691  65.0228453  60.9825993
  43.4837627  16.3102460  10.3425610  43.2924223  17.1736324   9.9762505
  43.7508488  16.4866352  11.2446606  32.1672440  57.9224443  17.7369738
  32.9269600  57.3558569  17.6026702  31.5451002  57.6530409  17.0612574
  13.1796348  11.8558967  35.8721709  12.3708284  12.3159897  36.0966229
  13.0146801  11.4919531  35.0023627  30.5395985   3.3529395  28.3438396
  30.2785850   3.7404391  27.5084066  30.1588392   2.4748388  28.3299303
  33.6098599  15.8080876  26.2522864  33.9360452  14.9595666  26.5520310
  33.4701753  16.3085604  27.0561814   0.9935578   4.1903070  36.0713387
   1.6313323   3.5205355  35.8245969   0.1509586   3.7364626  36.0544991
  23.8799977   4.0723971   5.7012218  24.5043421   3.4794134   6.1193067
  23.8479495   3.7824929   4.7895420   2.8791341  43.2333374  15.2682972
   3.3155242  42.7144432  14.5926178   3.3427897  43.0130625  16.0762167
  83.3954239  34.3689513  12.1154141  82.6980877  35.0201941  12.0391047
  83.2202339  33.9266515  12.9460227  73.6497259  47.6378918   6.6434246
  73.9632225  47.9703665   5.8023453  73.1430912  46.8574858   6.4186752
  47.1163988   0.8398676  15.0371885  46.5760565   0.1790646  15.4703188
  46.4892721   1.3991010  14.5787108  10.2683353  44.9941349  26.6881752
   9.9672782  44.1146231  26.4600301   9.4719672  45.4624319  26.9386363
  16.4539647   4.7163814   2.0487612  16.0396194   5.0108010   2.8598511
  15.7432866   4.3148795   1.5487960   7.7861613  38.2603502  45.3563929
   6.9844723  37.8521371  45.0294542   8.0570078  37.7047157  46.0872459
  71.0955811  63.5470533  44.1072655  70.6179142  63.8501406  43.3351231
  71.0533333  64.2821646  44.7188663  34.8839855  27.6881433  19.9894166
  34.5186806  27.5188971  19.1210043  34.1339087  27.6267767  20.5808997
  12.8899503  11.3190079  65.7786369  12.4622488  11.8375742  66.4600992
  12.3976469  11.5175879  64.9821234  23.7493992  79.4662857  19.6099329
  24.4840431  79.9536705  19.2371249  23.7623501  78.6259413  19.1517997
  57.0958281  76.2666368  68.1449938  56.6800833  77.1147728  67.9899025
  58.0345440  76.4479637  68.0984831  47.8367186  10.2109182  28.0939674
  47.3652029  10.3570366  27.2738743  47.6461458  10.9866869  28.6213160
  37.7270818  47.8484058  28.7408018  37.9114532  48.7747955  28.5857463
  38.1191134  47.6658344  29.5947409  38.2083106  20.9509826  48.2068539
  37.8516459  21.5571713  47.5575781  38.6028743  20.2496886  47.6884508
  20.6121254  24.2399740  44.0282059  20.6860137  25.0500989  44.5326567
  19.7331798  23.9153123  44.2238617  69.0426254  63.0231190  49.7044659
  69.8793745  63.4528875  49.8816156  68.4020424  63.7343502  49.7105551
  46.2357855  77.0576191  60.3606176  47.0149946  77.1743822  60.9041500
  46.5042543  77.3527622  59.4905329  65.5594683  46.8872833  54.0797424
  66.4791441  46.8541241  53.8164520  65.1176596  46.2828016  53.4833813
  40.2543545  11.9308317  20.9346199  39.4781375  12.0120585  21.4888048
  40.7238531  12.7558625  21.0576057  25.0033760  11.1239159  18.4086108
  25.6068373  11.7196345  17.9645574  25.5491376  10.3833580  18.6730909
  20.4837322  12.0740676   9.0534884  20.4192901  11.1244357   8.9521074
  20.9628844  12.1954620   9.8731887  19.2028177  24.9779153  22.4277806
  19.8874855  25.5507421  22.7732229  18.4126234  25.5180788  22.4345517
  14.0310025  27.2851133   4.1900575  13.9297616  28.2340956   4.1164523
  13.2382369  26.9938922   4.6405497  60.3599787  51.2231636  46.9693661
  60.9293461  50.9226704  46.2610197  60.9073448  51.8198299  47.4798727
  51.8802500  25.8011889  28.2998729  52.2226524  26.6676283  28.5195899
  52.4890041  25.4624844  27.6434231  62.6826286  61.2626219  45.3802824
  62.1855354  62.0502615  45.6010866  62.5048590  61.1199760  44.4506121
  20.5324626  35.4104638  54.8109388  19.6273923  35.6023335  54.5654488
  20.5041790  34.5156837  55.1497602  79.8906183   3.0534595  34.4591379
  79.3630314   3.0592152  35.2577925  79.2701626   3.2619327  33.7607074
  84.9209785  34.4802713  52.4830818  85.5277729  34.4511318  53.2227993
  85.2429962  35.1976347  51.9372559  64.3994379  24.7182417  19.9995577
  64.4167805  23.7979746  20.2623081  65.2384758  24.8578262  19.5605111
  53.5392427  27.2648811  19.5237792  53.1439781  27.2053766  18.6540329
  54.0986109  26.4906406  19.5861340  30.4372501  74.1541481  24.1577911
  30.8134317  75.0320339  24.2213273  31.0132933  73.6901283  23.5502625
  85.5740833  14.8055208  39.7026706  85.9556770  15.6693113  39.5461869
  86.0421276  14.2246795  39.1028428  80.1558971   9.1064781  19.1784728
  80.1882458   9.1875273  18.2252586  80.9591198   8.6384130  19.4064450
  75.5050993  23.9349651  30.2181149  74.5591545  24.0813088  30.2185440
  75.7636118  24.0420294  29.3027234  37.0654678   1.0579102  10.3228986
  37.8904033   0.6509308  10.5876279  37.1583462   1.1963797   9.3803322
  35.6857944  38.6731577  52.3377609  36.3765144  38.3541346  52.9185915
  36.0975599  38.7116265  51.4745092  41.8671703  20.7344508   2.6699293
  42.5624275  20.0796986   2.7342990  42.1964550  21.4831424   3.1671840
  22.5293565  71.6653109  43.8020706  22.6418686  71.8353415  44.7373056
  23.3903384  71.3685703  43.5073042  46.4364481  51.1251116  24.8084378
  47.0233059  51.8440914  24.5741320  46.0385132  51.4002228  25.6343913
  17.7181268  16.0876584  13.4816194  17.9286623  16.2992632  12.5721526
  17.3615742  15.2001131  13.4446585  75.9164953  72.8741074  67.3003864
  75.9782219  72.5693321  68.2056713  76.7337036  72.5853157  66.8941927
  34.7683001  73.6781740  50.8991241  35.2513289  74.0304279  50.1515770
  35.0264311  74.2339230  51.6344786  10.7099342  45.1932907  12.6083004
  10.7568824  44.9121809  11.6945159   9.9073541  44.7918987  12.9414392
  84.8070526  71.7389536  25.3568101  84.2430973  71.9755554  24.6204638
  84.9802113  72.5684118  25.8020616  38.8604474  52.3489666  22.7427077
  39.3354082  51.8061304  22.1134400  38.9412808  51.8795586  23.5729814
  65.6617403  73.6268616  63.8179541  66.2359381  74.2237568  64.2977858
  66.2283611  72.8958035  63.5715199  41.0054779  40.5027485   9.0586072
  41.2022161  39.7770286   8.4662771  41.3598108  41.2747955   8.6174417
  21.3048315  14.1511667  24.3397713  22.0245671  14.1862023  24.9698400
  21.3997006  13.2986712  23.9149380  44.8284912  52.4032211  10.8801019
  45.1791573  52.2508907  10.0025702  44.7414923  53.3544827  10.9414625
  32.8413343  39.0374374  35.8493757  33.7276411  38.7790322  35.5965519
  32.9563451  39.8687863  36.3096595   9.4583452  36.0105014   5.4836631
   8.5664684  35.6658077   5.4392517   9.4255328  36.6714001   6.1753047
  38.1294560  16.1673319  55.3175402  37.9645443  15.2533615  55.0858212
  37.2979259  16.4772415  55.6763458  54.2907095  75.2462101  66.0965729
  54.1441774  74.3003273  66.1046076  54.6384907  75.4420996  66.9665766
  54.2607355  71.2481117  34.7855401  53.9817810  71.8297529  35.4927230
  53.6243105  70.5332470  34.7982645  18.4836745  20.0001287  18.2457411
  17.8187478  20.5670905  18.6364579  18.5437858  20.2929211  17.3364055
  35.2874899  11.7495418  18.8340282  34.6005917  11.9946480  19.4539690
  35.9403467  12.4451280  18.9125729  84.4196606  78.2919693  22.5136900
  85.2430153  78.5894060  22.9007816  84.1469860  77.5585175  23.0649853
   6.1651194  33.0586004  48.2390356   6.1060983  33.1714225  47.2903442
   7.0963544  33.1616735  48.4350204  15.8322620  25.9207773  63.0841446
  15.8707595  24.9652004  63.0438709  16.7200136  26.1863470  63.3241510
   3.3588189   9.1298389  30.6022453   3.3867607   8.5242349  31.3429856
   2.6515952   8.7987047  30.0486970  28.3048844  46.4701986  13.4931302
  28.4785056  46.7197609  12.5854921  27.6727390  45.7543898  13.4279799
  59.1454935  51.2232590  54.6436310  59.5556974  51.8553543  54.0533590
  58.3162403  51.0026360  54.2194939  38.2440019  35.7430148  11.0490835
  38.8066530  36.5065408  10.9199202  37.3554206  36.0765576  10.9249675
  55.8608198  34.2844009  14.0440822  55.2631903  34.9916148  13.8013577
  56.6036129  34.3835235  13.4485400  32.3232508  72.6109505  57.7454329
  31.8202972  73.3427143  57.3879576  33.1546545  73.0009747  58.0153990
  29.5899296   1.0151409  15.2571368  28.7913132   1.5183710  15.0983870
  30.2878428   1.6701667  15.2667427  30.2276444  25.3791070  28.7615180
  30.3897929  26.2748361  28.4655213  30.9176469  24.8612309  28.3468699
  34.0611792  44.8894405  36.0355186  33.2580638  45.1134443  35.5653477
  34.0716171  43.9323950  36.0493302  25.5397439  38.6400270  51.1043406
  25.1640987  39.1218066  50.3674459  24.8399854  38.6169052  51.7570543
  38.5999370  18.2153606   8.5481769  38.6280131  18.2371974   7.5916380
  38.1490278  19.0234089   8.7930661  80.9720039  18.8438106  25.5055261
  81.5610886  19.5981205  25.4903173  80.5415630  18.8587916  24.6506953
   2.3345782  43.6446619  32.4016643   1.6841377  43.5001326  33.0888820
   3.1341729  43.8770914  32.8737426  40.2710247  12.0785940  23.9501429
  40.1085234  12.9746914  24.2448235  41.2249756  12.0027936  23.9287019
  65.0491858  81.7070675   9.1328466  64.3107939  81.1118793   9.2622972
  65.6506443  81.5017605   9.8486191  78.4492445  38.0551553  24.4955826
  78.0251837  38.7215853  23.9549589  78.8546419  37.4586058  23.8662887
  55.9565258  77.6793098  46.3427782  55.4467773  78.4864235  46.4131737
  55.3848791  77.0755959  45.8684540   5.3284937  18.0941474  26.7624807
   4.9213845  18.1402004  25.8973956   5.8880335  18.8695824  26.8054581
  68.0549002  57.0543146  45.8260822  67.5911665  57.8916216  45.8162594
  67.4110317  56.4277840  46.1564302  43.9089727  66.1283684  70.0089025
  44.6589279  66.4081812  69.4840193  43.4645367  65.4786491  69.4643164
  83.6199474  14.5810413  12.5610173  84.3467522  14.0364540  12.2586691
  83.8921833  15.4765761  12.3606718   4.1137397  18.6504400  38.1230903
   4.5769143  18.5496521  37.2914982   4.4195133  17.9178178  38.6578798
  35.0229597  78.7855530  57.6424980  35.3861928  78.5895586  56.7788553
  35.3381872  79.6674204  57.8404093  23.9061594  70.5940199  55.0532055
  23.3692169  71.2362528  54.5890236  24.8063946  70.8858681  54.9095535
  50.9923697   6.7382342  10.6603253  50.7865858   6.6236395   9.7325581
  51.7978621   6.2377906  10.7905853  12.2403097  70.4763174  52.6524401
  13.1145489  70.8119726  52.8506088  12.3965800  69.6153307  52.2644806
  35.0939560  55.1659107  20.6072760  35.8347225  54.7751284  21.0707235
  34.3338490  54.6673822  20.9071708  74.9104309  39.5087075  22.0305157
  74.0013695  39.7827005  21.9089866  74.8564386  38.7513757  22.6134086
  29.4169927  69.2097473  59.5411634  30.1645803  69.6630144  59.9308968
  29.4699001  68.3189487  59.8874474  18.1931102  39.8663378  23.4065509
  18.7561357  40.2857256  24.0572023  18.4699869  38.9500570  23.4052134
  12.7395117  10.0797856  48.1351566  12.7190351   9.9334282  49.0808773
  11.8809319  10.4507577  47.9315567  37.7567148  33.1145120  14.7589433
  37.9760718  32.2227144  14.4891071  36.9326305  33.3045435  14.3106091
  30.5640101  23.2546353  23.2650113  31.4880204  23.3018303  23.5103798
  30.2502942  22.4449515  23.6677837  17.4558139  54.6842861  46.8220711
  18.3273232  54.8399496  46.4581060  16.8553066  55.0324106  46.1629581
   4.7733071   9.6301508  67.9549265   5.5702144   9.1053182  68.0305672
   4.5423830   9.8465437  68.8582945  58.0341578  28.2444167  29.3312645
  57.3952866  27.9405165  28.6865044  57.9535007  29.1981077  29.3172526
  33.1768155  47.5176287  39.8621917  32.4242234  47.9296017  40.2865934
  32.9544735  47.5140667  38.9311790  26.5472221  58.5154581  16.0915256
  26.4648175  58.0159998  15.2791321  26.8759608  59.3707132  15.8145750
  17.0390427  16.5571952  28.9943480  16.3681543  15.8954227  29.1622734
  16.5513933  17.3764932  28.9096117  57.8164673   8.0006790  30.9218335
  56.9548416   8.3480471  31.1524010  58.1667185   8.6287689  30.2901220
  17.3252249  57.3548031   0.7468356  17.3714352  57.0187616   1.6419187
  16.7646253  58.1280899   0.8099583   3.0495608  28.5780191  35.8265758
   2.4832837  29.2677546  36.1727357   3.2908210  28.0587387  36.5936303
  72.2330093  27.8673673  29.4853926  72.6288605  28.7346673  29.5709610
  72.5879431  27.3684430  30.2211428  41.4364672   9.6698534  34.6128035
  40.6460190  10.0933242  34.9476171  42.0328808   9.6500009  35.3612208
   4.6318388  18.1824446  20.4696798   3.9104554  18.4122348  19.8839891
   4.7467384  18.9551806  21.0227704  64.2604971  29.7098184  32.0858407
  64.7104597  29.1282845  31.4729905  64.9318266  30.3346634  32.3599124
  28.0909967  61.1908340  38.6365056  29.0286303  61.0411739  38.5153723
  27.9703331  61.1982012  39.5860410  29.9827003  35.1451778  20.8896804
  30.0536227  36.0183859  21.2753105  30.6434679  34.6263647  21.3484311
  13.0599773  14.9789810  13.3545709  12.9924715  15.7725811  13.8854885
  12.8939342  14.2645335  13.9695728  10.1161182  57.5728130  43.5500574
  10.2959657  57.9634047  42.6948786  10.7838511  57.9427767  44.1275454
  41.5306282   8.3770502  25.5295491  41.1727381   7.6706189  24.9918699
  40.9903669   8.3738899  26.3197017  31.9503927  15.3399229  30.1693225
  32.3349476  15.6651008  30.9833312  32.4352312  15.7912529  29.4783330
  86.0395336  19.3767250  17.9066586  86.1903000  19.9519730  17.1565974
  85.7038403  18.5663962  17.5233674  79.3666744   5.1439452  42.0408010
  79.3851376   4.2267877  41.7674637  80.2507305   5.3149277  42.3655319
   3.9779043  80.7274437  16.6051531   4.1604257  81.6027737  16.9467998
   4.8415223  80.3331947  16.4828134  85.2319241  23.5850763  28.3858609
  84.3363953  23.8085127  28.6395121  85.1293755  22.9134965  27.7115488
  77.3303318  11.5954649  35.9922051  77.4070978  10.6561172  35.8249807
  77.7977943  12.0071197  35.2653956  18.1979465  66.7074537  62.2996855
  17.2495055  66.7264557  62.1719027  18.3142257  66.8029022  63.2449865
  23.3017921  25.8849812  12.7119267  24.1176224  25.9136915  13.2117558
  22.7075529  26.4634299  13.1899512   4.4342044  35.5168414  31.6000056
   5.2966386  35.1129627  31.5034604   3.8495231  34.7870827  31.8045330
  11.0898495  54.3252754  16.6194165  11.7546785  54.1575956  15.9514940
  11.5492606  54.8245716  17.2946000   3.5207859  14.7149551  33.0130172
   3.8561580  14.4439542  32.1584320   2.6571625  15.0827968  32.8257227
  47.1827841  42.6929474  20.0649190  46.6784430  42.7577448  20.8758879
  46.5568447  42.3652649  19.4191253  17.8625095  31.4063454  29.0288305
  18.0272615  31.6886640  29.9284887  17.3335934  30.6137276  29.1195869
  16.4204669  50.5303717  55.8722973  17.3332787  50.2428627  55.8537579
  16.2801635  50.9374475  55.0174046  74.4999504  15.5956340  16.8873179
  75.2663898  15.3694820  16.3603818  74.2553902  16.4721680  16.5904844
  28.3757997  32.7511382  21.8066669  28.6652803  32.3484993  20.9879398
  27.8225350  32.0869303  22.2177148   6.2764257  53.0941105  51.2092257
   6.1879170  53.9563560  50.8031082   6.6826773  53.2696772  52.0579672
  54.0391874  72.6559925  65.6990433  54.5745039  71.9269753  66.0124159
  53.6527014  72.3362398  64.8838043  75.8716917  15.6626856  19.5315158
  76.4920044  14.9338996  19.5492840  75.4291821  15.5800235  18.6867762
   5.8737465  39.6844862   0.5182736   6.6951318  40.0914667   0.7938092
   5.7367893  40.0018881  -0.3743227  12.2250903   6.3613808  50.7343006
  12.8080750   5.6598449  50.4441118  12.8071594   7.1025503  50.9019184
  84.9998569  44.9277449  40.0283861  84.3968773  44.8651314  40.7691526
  85.5345535  45.6983900  40.2192688  38.7028265  71.2464428  69.6305561
  38.3066750  70.7422590  70.3412580  38.4741330  72.1553040  69.8252583
  36.5812492  69.5970726  64.0010357  37.2290635  70.1942492  64.3751287
  36.5401149  69.8375988  63.0754614  39.5477104  27.0740628  21.8634820
  39.7601891  26.3917851  22.5003338  38.6031532  26.9927001  21.7314672
  18.6126447  13.4057665  27.6365614  18.5789108  14.3077922  27.3180580
  18.0437636  12.9195809  27.0397115  29.9305391  75.4692411  51.4731216
  28.9982176  75.2761889  51.3744354  30.1988554  75.7993174  50.6156301
  35.7747746  36.1238098  37.8110099  35.1810050  35.8015728  38.4891200
  36.1907697  36.8920112  38.2022214  31.7937207  20.7904315  21.3347316
  31.4219379  21.1063218  22.1582747  31.6215587  21.4938617  20.7088089
  60.4273939  61.4780045  31.0266018  59.8678541  62.2166204  31.2665820
  60.7557011  61.1449671  31.8617868  71.8656063  61.2342072  14.2868257
  71.5997791  60.6994343  13.5387707  72.6628733  61.6758204  13.9942861
  24.7186375  20.7910991   1.5581125  25.3854609  20.9096622   0.8817089
  24.0673375  21.4678526   1.3736044  11.4384496  27.9152966  34.1997981
  11.9971299  27.7795720  33.4344959  10.5586779  27.6904798  33.8969922
  45.3836250  49.5739460  61.0549641  45.4899502  49.6686602  62.0015097
  44.9891138  50.3997183  60.7744408  62.4348831  26.9498420  17.3489726
  62.7812481  26.1215377  17.0170426  61.4911509  26.8917322  17.1998954
  76.3260651  37.9494905   4.5780638  76.9743729  38.5278010   4.1762111
  76.8255520  37.4320364   5.2097183  18.8307130  43.5554266  34.4143033
  18.2950735  42.8400373  34.7571421  19.1650724  43.2258034  33.5801673
  22.2428441  36.0309887  36.3815856  22.2477937  36.7009735  35.6979704
  21.3533378  36.0552764  36.7343163   6.6293889  24.8732924  27.4166036
   6.6264081  23.9897132  27.7847219   6.9656032  25.4256558  28.1223559
  39.2229438  30.2376556  10.1229358  39.7972727  30.9334207  10.4427648
  38.3687258  30.6583047  10.0249779  80.0550461  59.1850090  10.1639140
  80.0058460  58.8486910  11.0587335  80.9916401  59.2075014   9.9676549
  84.5401382  38.8303375  32.8616571  84.9425793  38.3418751  33.5797668
  84.3889618  38.1745052  32.1810246  18.3371365  13.9100564   8.7634116
  19.0783334  13.5831618   9.2733127  17.6510465  13.2549167   8.8910961
  31.9707870  42.5823164  28.9934325  32.4251866  42.0778227  29.6681476
  31.7448449  43.4074545  29.4227743  52.2651958  45.3886223  19.8415732
  52.5872850  45.0701141  18.9983404  52.6982355  44.8322678  20.4890132
   9.3640852  25.8713770  46.9234276  10.0076878  25.6231308  46.2598181
   9.8237878  26.5005088  47.4793959  86.1105251  78.8737392  38.7800956
  86.7139721  78.3114481  39.2657971  85.3078175  78.8704109  39.3015313
  18.5630143  29.5304871   8.7269002  18.7515867  28.7303209   8.2365894
  17.6074171  29.5655370   8.7697625   5.3639370   9.7176707  13.9872050
   6.0553282   9.1297221  14.2913866   5.8294469  10.4939604  13.6759067
  37.6453853  74.4142199  29.3713379  38.5661840  74.3532276  29.6255827
  37.6023602  75.1893568  28.8113856   8.2144588  51.6759205  35.8588004
   8.6390889  51.3345623  36.6458178   8.7528378  52.4244261  35.6016731
   7.3369116  50.5901861  33.4755611   7.6832730  50.9667301  34.2845607
   8.0589634  50.0679159  33.1261230  64.8056221  17.4181151  22.4837089
  65.0172806  18.1128979  21.8602443  64.4893217  16.6966069  21.9400096
   5.9580654  20.3532290   8.9490229   6.6167742  19.7725940   8.5679734
   6.4141786  20.7957745   9.6648061  84.5086575  19.1974199  23.3830762
  83.9438629  18.7766552  22.7348471  85.3362656  18.7199366  23.3256030
   2.7428165   5.8926570  42.8043175   2.7519593   6.7235953  42.3292494
   1.8465203   5.5710417  42.7071190  81.5554333  14.1369152  53.2410002
  81.3387108  14.1211510  54.1732073  82.2537899  14.7875094  53.1684256
  74.3544436  10.4119587  48.7914801  74.6604061  11.0357726  48.1330967
  74.0933180   9.6409804  48.2878542  40.8025694   4.5379308   3.0148795
  40.2183485   4.9153700   3.6724949  40.5712986   3.6093289   2.9937705
  77.1377087  37.3117185  66.7744637  77.6392841  36.5063572  66.6477728
  77.2887182  37.5464010  67.6900768  76.1564970  24.2962956  27.4830270
  75.6461000  23.8379121  26.8154836  76.6072798  24.9918199  27.0042038
  32.0368314  60.6788254  49.5902395  32.1774125  61.4951372  49.1105509
  32.5651264  60.7727814  50.3828955  44.0169477  45.8178949  66.7530251
  44.3178368  45.1024628  66.1927986  44.1411304  45.4924250  67.6445866
  73.8640213  52.1673965  59.3838978  73.4558535  53.0122042  59.1943264
  74.7484016  52.2428989  59.0255642  18.7871075  24.9505424  11.9738197
  18.7975180  25.5668759  12.7061152  19.5971048  25.1314759  11.4969540
   5.4877746  63.7190199   2.0281936   6.3648200  63.6694908   1.6479698
   5.4519469  64.5843601   2.4357919  17.5514448  66.2276077  37.5397110
  17.0755565  65.4470396  37.8233981  17.1797931  66.4364243  36.6826797
  13.1743169  29.6503782  15.1945233  12.7223122  29.1181397  14.5398116
  12.5730944  30.3738356  15.3716469  27.3209596   2.7542412  60.4973793
  28.1062245   3.2335854  60.7616186  26.9439363   2.4404857  61.3193512
  73.5463858  80.1847649  65.6075764  73.6394644  79.5827961  64.8691988
  74.4187450  80.2190590  66.0000706  36.1484885  66.0761786  13.9307320
  35.3771329  65.5139160  14.0021348  36.0119557  66.5684319  13.1212378
  39.5951033  18.3670461  31.0759640  40.5234432  18.1478131  30.9962726
  39.5769477  19.3234611  31.1101961  21.3113832  20.6163359  18.6757195
  21.2356091  21.1988854  17.9199910  20.4260087  20.2766871  18.8060379
  62.5901175  79.7064352  54.8730040  62.3858833  78.7717438  54.9025726
  61.7675304  80.1387119  55.1026058   9.8520458  68.5685158  18.1954253
  10.7004607  68.4124041  18.6102176   9.5578074  69.4037151  18.5588813
   9.5573872  74.7966099  15.3783357   9.6176529  75.2044678  14.5144773
   8.8511342  74.1562939  15.2921402  37.4381089   9.7540945  28.1136870
  36.6437936   9.4788206  28.5714221  37.9876184  10.1377451  28.7971234
  84.1262436  20.2056623  69.1470718  83.3734512  20.4939604  68.6309147
  84.0629578  20.7039833  69.9618721  29.8565197  44.0988779   6.9334608
  30.6606793  43.5797071   6.9382745  29.5374608  44.0546227   7.8348351
  79.2556810  78.0167770  59.8905706  78.4576035  77.6401997  60.2613831
  79.2177010  77.7909088  58.9611769  77.7213430  57.9872894  69.8470974
  77.5765085  58.4837532  70.6525660  76.8486261  57.8882551  69.4665813
  65.8118534  22.6013708  55.3641605  65.2716255  21.9240856  55.7711887
  66.5735483  22.1297431  55.0270891  56.9200754  62.8237486  52.1425724
  56.3797331  62.0660257  51.9186926  57.7458429  62.4474621  52.4471283
  47.7968931  23.0153894   8.8369077  47.9885626  23.2588983   9.7425556
  48.5814190  23.2675672   8.3499199  71.7596149  69.2197227  44.1307306
  71.6904688  69.7940969  44.8933220  72.7007723  69.1399097  43.9755535
   1.4492229  66.2289333  19.2869508   1.9968840  65.8590078  18.5945237
   1.7585452  65.8066130  20.0883222   6.3650972  49.8964834  51.9832468
   6.7481703  49.1148186  52.3813438   6.9532162  50.6075621  52.2376442
  44.5128202  36.7751002   1.5493633  43.8010979  36.6586852   2.1787529
  45.1385021  36.0834432   1.7646991  16.5119290   2.2913280  36.5701318
  16.6930103   3.0874479  36.0704970  16.0418844   1.7257449  35.9574294
  27.6593494  50.9730864  39.6747875  27.6746106  50.1377296  40.1418781
  26.8074560  50.9880590  39.2385697  21.7702532  46.3348055  33.9412427
  21.6008067  45.6437540  33.3009577  21.5335870  47.1442032  33.4883595
  12.9171336  51.3022757  41.4772511  12.6156497  52.2083426  41.4110756
  12.8427482  50.9594536  40.5866480  70.4672384   0.2722351  65.7741308
  71.4227438   0.3255390  65.7942057  70.2032089   0.9417588  65.1430559
  77.0083809  25.3564048  64.6969700  77.1201515  25.3996325  63.7473011
  76.4727831  24.5760489  64.8398256  43.1510544  36.0434747  44.1853237
  42.9495621  36.6081762  43.4391737  43.8575411  36.4970565  44.6450806
  26.3563013  55.0579834  32.5196862  26.4116931  55.9599209  32.8353953
  27.2625399  54.7498560  32.5147915  36.2383509  24.2601442  29.9636102
  36.2731767  25.1419330  30.3343773  37.0032859  24.2110014  29.3902946
  23.3454514  60.6800985  10.4305494  23.5280704  61.3349771  11.1043596
  22.4138641  60.7873678  10.2385330  35.7604456  59.9945688  34.5046973
  35.8129787  59.0505266  34.3555236  35.4148531  60.0777483  35.3934479
  27.4245501  45.5942011  24.8654509  27.7310419  46.4950275  24.9693799
  26.4731765  45.6533146  24.9527764  54.6186352  41.4109850  24.8064303
  54.1345596  40.6534195  24.4777966  55.0777817  41.0845327  25.5802774
  51.8255424  23.7414789  12.1958053  51.5750027  24.2088652  12.9926825
  52.5349951  24.2654562  11.8238354  35.8991694  36.8446302  14.3200862
  35.9169626  36.6591024  15.2589655  36.6793442  37.3774934  14.1664112
  12.6161635   5.1099467  15.6605852  12.5732791   4.6711671  14.8109591
  13.4652638   4.8531464  16.0201859   5.8512390  50.0225735  37.1881199
   5.4759955  50.9026480  37.2180438   6.6981298  50.1082802  37.6259112
   8.4895635  68.6599350  30.4795599   7.5545019  68.4919596  30.3626156
   8.6768699  68.3623075  31.3698220   5.6865919  42.1287251  34.7527504
   4.8675254  42.4511194  34.3766880   5.4306030  41.7462683  35.5920529
  42.0594978  45.2085590   7.8949004  42.7735519  45.7985735   7.6535583
  41.3288927  45.4761362   7.3373657  45.6106949  26.4683986  69.1902018
  45.4380608  25.8324742  68.4959173  45.2212334  27.2826219  68.8714695
  36.3484263  33.2785797  38.9060354  35.6845140  32.5892949  38.8876295
  35.9876490  33.9430046  39.4930696  61.6176653  24.1612005  19.5533884
  62.2760630  24.7554469  19.1933644  62.1182060  23.5444093  20.0874877
  79.8154068  25.7689977  57.5038528  80.0552177  25.7249641  58.4294796
  78.9177561  26.1013412  57.5045443  38.8836694  47.1014404  30.9532475
  38.1879950  46.9619942  31.5957642  39.6851444  47.1485806  31.4744473
  11.3618159  12.9270029  20.7943392  11.2156761  12.0070899  20.5738068
  12.2915208  13.0708623  20.6177473   8.9455491  62.9907131  27.5740838
   9.5250124  62.2447443  27.7289724   8.1827140  62.8201914  28.1265664
  49.6388435  57.1524048  17.2127736  48.8600492  56.7171574  17.5595772
  49.4242620  57.3340416  16.2977898  20.1844954  32.5108075  30.3957009
  19.8949397  32.3062396  31.2848234  21.1244965  32.3302913  30.4024434
  38.0896068  68.2219934  54.7290564  37.3340416  67.6667261  54.9214983
  37.9950786  68.4423351  53.8023710  85.5338764   1.1472887  40.7625055
  86.2903690   1.7326741  40.7268095  85.1279736   1.3318402  41.6095066
  84.5866013  50.3084040  44.0986681  84.4811916  49.7468805  43.3306742
  83.9521122  51.0132599  43.9689112  24.6145368  53.5473824  31.3640451
  24.9013066  53.7816381  30.4813671  25.0964761  54.1425276  31.9383001
  10.7994020  39.5584464  57.9641294  10.8668876  39.9888659  58.8164282
  10.8266366  38.6230373  58.1653738   0.6223729  71.9545555  46.4901924
  -0.1896406  72.4382257  46.6416216   0.8524088  71.5981102  47.3482466
  81.3411808  25.2246141   4.8327896  80.9014797  24.3776774   4.9075437
  81.2299252  25.6290150   5.6932044  33.4633946  64.2624712  18.4697759
  34.2144704  64.7663546  18.7831736  33.6206245  63.3741283  18.7897193
  15.5233753  48.4445810  37.6342034  14.7100091  48.3862257  38.1354618
  15.2396905  48.4807158  36.7207193  40.4921198  50.9408140   5.9317929
  40.7377386  50.6147289   5.0660145  39.5352101  50.9173203   5.9339696
  31.7611265  79.8403645  67.5030136  32.6492453  80.1531982  67.3309326
  31.8820143  78.9599085  67.8585720  54.8915052  29.1400790  16.9896579
  55.3679895  28.7204623  16.2733388  55.4902458  29.8128533  17.3138762
  37.5048804  38.8839793  31.2702274  37.0946264  38.5561132  30.4699612
  38.4365797  38.6966920  31.1558080  31.3603830  35.1926732  64.3295527
  31.3533211  34.9017954  65.2414560  31.1278200  34.4117546  63.8272476
  54.1869879  65.1595974  64.6982861  54.5296049  65.0722742  65.5877876
  54.8050070  64.6710920  64.1545439  77.8800154  75.0517178  28.8201308
  77.9470491  75.4700470  27.9617953  78.7871742  74.8900747  29.0792942
  67.1000576  33.6852479  21.8036318  66.5242434  34.4415474  21.9162250
  67.9843378  34.0497184  21.8415761  43.9006662  33.7832189   4.8902911
  43.0942249  34.0526342   4.4506332  43.9571714  32.8410959   4.7307843
  64.1440630  57.7843380  59.9426794  64.0053034  58.5754442  60.4633760
  63.8407469  57.0713854  60.5047560  76.1672831   8.4420884  56.3353443
  75.8865356   9.2484826  55.9027481  76.9435310   8.1664830  55.8477926
  61.8220806  32.1672058  26.7087650  62.6836348  32.3897457  26.3560128
  61.7604494  31.2172318  26.6088390  35.2167916  26.8859553  31.2349796
  35.3619742  27.8138900  31.0503435  34.3053150  26.8389010  31.5234756
  69.4721985  62.7967262  69.7556877  69.6304655  63.4401083  69.0648603
  70.3381395  62.6242828  70.1253366  12.2578526  21.7438340  16.6655946
  12.3368955  21.4742565  15.7505476  11.4696240  21.3001537  16.9787633
  33.2420492  46.1740255  42.6141119  33.5430837  47.0282650  42.3044634
  34.0196562  45.6172562  42.5744915  35.4036474  70.7603502  46.2451792
  35.2134395  70.5876255  45.3231049  34.7767210  71.4387703  46.4960575
  63.0242252  50.1923466  12.6808012  62.5893545  49.4333076  13.0693591
  63.8302422  49.8396015  12.3037863  21.3900805  31.1473846  13.2514119
  21.0644722  32.0465755  13.2922363  20.9673882  30.7059145  13.9880717
   9.2760378  31.4904118   5.9994930   9.3315852  30.8039069   5.3347695
  10.0749159  32.0041156   5.8806109  26.0876322  48.5289431  38.8036728
  25.1922464  48.6562395  38.4901285  26.6345453  48.9644003  38.1498408
  75.2267265   8.9597678   3.5780275  75.9932327   8.3958399   3.6813751
  75.4831219   9.7888327   3.9819390  15.8399284  11.8865526  51.3053513
  16.0425293  12.8048110  51.1265039  15.8215141  11.4728653  50.4423571
  18.9923990  62.2157621  20.2054763  19.0940464  61.4834261  19.5975423
  19.2193401  62.9890585  19.6890032   3.1362990  65.8556080  55.1748419
   2.6658043  65.1388788  54.7492075   3.3809739  66.4406586  54.4578457
  19.9526024  20.7734442   4.7823840  19.7780240  21.6794205   4.5275074
  20.6384635  20.4833627   4.1809872  65.7158279  45.0033236   9.2144525
  64.7724915  44.8430490   9.1887182  65.8346415  45.8139133   8.7194109
  68.9535999  28.1377196  54.1729498  68.5457706  28.7551832  54.7801113
  68.8457346  28.5418105  53.3119535  19.8596942  26.8788528  42.2984838
  20.6236577  26.6854787  41.7551613  20.2155781  26.9953084  43.1794024
  29.6719670  42.4946404  26.7719316  29.5952320  41.5492249  26.6433620
  30.2848434  42.5882196  27.5012159  68.4734917  10.6648815  68.7957907
  69.1111708  10.7279778  68.0847216  67.6388836  10.5042803  68.3554888
  72.5970745  79.9070978  10.3877699  72.3929358  79.9308729   9.4528937
  72.5306702  78.9818811  10.6239736  26.9133210  13.2600796  10.9332597
  26.5312123  12.5962877  11.5073717  26.4750099  14.0736139  11.1828148
  74.0396118  47.8638601   3.7077719  73.5003042  48.4790564   3.2108709
  74.8960495  48.2876015   3.7642476  35.1713371  28.7958026  55.1994991
  35.3195381  29.5582461  55.7589149  35.4425716  28.0498528  55.7344961
  38.5999155  29.5161581   5.5717075  39.1039824  30.2926159   5.8151442
  38.4711337  29.0461922   6.3955879  52.2532034   5.4390502  20.3282070
  52.3640776   5.4207116  19.3776262  53.1064558   5.7142061  20.6635976
  36.4194202  56.9762707  34.4166923  36.2966132  56.0364437  34.2829990
  36.5512848  57.3282099  33.5363603   9.1682357  47.5314140   4.3299752
  10.1079881  47.6102686   4.4939208   8.8758123  46.8501568   4.9354568
  42.4165487  20.6664443  24.3308330  43.2667255  20.6153584  24.7676635
  42.2797441  19.7905481  23.9698267  20.7389379  33.0365705  56.1746597
  21.2170243  33.5064197  56.8579674  20.6331897  32.1509457  56.5220976
  26.3915467  39.5929456  27.9581523  25.7513690  38.8870311  28.0480862
  25.8803082  40.3950262  28.0655265   6.8980306  80.4678822  23.1252718
   6.3156682  81.1845493  22.8733397   6.7194277  80.3298569  24.0554762
  28.3810759   4.4387433  62.6273108  28.1984210   3.8468739  63.3570814
  29.3342924   4.5258409  62.6223803  77.2627115  22.1260619  63.6903477
  76.3999653  22.3870397  64.0125179  77.4553776  22.7492785  62.9898405
  62.6151371  17.9448462  66.0061741  62.3748827  17.2168756  65.4329634
  63.2537508  18.4473383  65.5003023  24.6471000  17.8936875   8.2460576
  24.8026299  18.4764016   7.5027633  25.3602195  18.0863976   8.8547903
  18.2069993  67.6161575  39.8941517  18.0398834  67.4485111  38.9666820
  18.3282399  66.7470884  40.2765846  14.5015740  46.2271261   4.2634761
  14.3916786  46.6646576   3.4192479  14.6503890  46.9397354   4.8849848
  46.9924307  71.8609810  66.1027861  46.3075447  71.6438866  66.7352676
  47.8101826  71.6504145  66.5535402  71.5899658  29.7685647  60.5050516
  70.7614136  29.3953133  60.8057547  71.8931103  30.3018427  61.2398624
  43.6679983  45.0998974  24.6616578  43.0073643  44.6054268  24.1765904
  43.3025932  45.9817219  24.7330475  31.3203740  33.0668139  12.1251619
  32.0677185  33.5806894  12.4311709  31.5529990  32.8144646  11.2316084
  58.2904863  36.8526602   9.1530931  57.9094458  36.2619758   9.8028094
  57.7536726  37.6435018   9.2043900  69.8203230  75.4075956  43.0317211
  70.4384613  74.7225142  43.2862902  68.9678144  75.0791788  43.3173800
  72.8885174   5.6009734  44.1492128  71.9368029   5.6394541  44.2439985
  73.0351877   4.9419233  43.4707069  85.4294777  45.4121447  19.6932805
  85.1063728  45.6933165  18.8372576  84.7016907  45.5816364  20.2914739
   7.3128051  64.8542643  70.4495716   7.0246178  65.6995726  70.1051426
   7.5950217  64.3645096  69.6770906  36.6492081  38.7643528  20.8043194
  37.0677257  39.3073630  20.1363254  36.6008282  37.8937221  20.4094839
  34.4117713   7.5802541  15.5243933  34.7494793   7.0803052  16.2675190
  33.5671043   7.9153603  15.8251858  51.7266798  24.4796181  31.2891984
  51.5247440  24.5369649  30.3553009  51.8761778  25.3860497  31.5580201
  20.0069404  55.5659103   7.7858537  19.6405756  54.7328663   7.4891281
  19.2464495  56.0768414   8.0630469  31.7377806  81.2816715  16.9532835
  32.0973849  81.3412762  17.8383613  31.5686250  80.3481960  16.8258440
  48.4645224  48.6293650  19.9163496  47.9717827  48.7740088  19.1085649
  49.0211725  47.8744364  19.7254312  53.7167883  36.0575151  13.7001371
  53.2073355  36.7879081  13.3491147  53.1216812  35.3089118  13.6593020
  42.4935579  54.7390795  26.9333673  42.4996233  55.0265837  27.8463507
  43.4137917  54.7568989  26.6705322  14.2355800  15.4511714  29.0207887
  13.3750975  15.1171494  28.7673497  14.6501601  14.7209215  29.4802356
  18.2452095  53.4706926   7.4942631  17.3303127  53.6723900   7.2980165
  18.3797979  52.5941038   7.1341091  51.3537741  31.0247207  17.7998221
  52.0951796  31.6228986  17.8932714  50.9308052  31.2931228  16.9841695
   0.8797023  58.6607313  37.0696807   1.6461015  58.1889725  36.7436337
   0.9604269  58.6192799  38.0225682  29.3992543  32.6836228  34.2950344
  28.8302708  33.4531116  34.2756176  28.9270282  32.0236945  33.7873650
  23.0326867  33.4403515  47.7179623  22.3663139  33.7560487  48.3282995
  22.6500249  33.5808086  46.8518925  45.5178785  51.3066006  13.0438197
  46.4487219  51.1433744  12.8917551  45.1447392  51.3998079  12.1672869
  84.6372032  81.3078117  18.6940181  85.2353382  81.7950153  19.2606771
  85.1331234  80.5317497  18.4332085  42.6018381  70.8869267  34.3819380
  43.1303740  71.0979557  35.1515818  41.7783117  70.5559063  34.7403574
  40.1936769  57.1172190  18.4432888  40.9018421  57.3949051  19.0243459
  39.3933797  57.3127031  18.9306724  16.3343585  15.0225425  36.2777543
  17.0246613  15.0328636  36.9407821  16.6942573  14.4939590  35.5655003
   3.7912586  68.3512211   8.6589235   3.2943556  68.9884520   9.1720104
   3.7127602  68.6576509   7.7555025  23.1153917  53.3837223  38.3839035
  23.3498764  53.7328148  37.5240302  23.2081652  54.1283798  38.9781404
  20.3894663  31.7011595  27.2645783  19.8432183  32.0932436  26.5833187
  20.0174141  32.0240736  28.0852699  52.6154137  43.4595299  21.8244529
  51.7693329  43.1241226  21.5279984  52.8808546  42.8583479  22.5204062
  29.8852468  45.2659512  21.1483645  29.8120332  44.8718262  22.0175791
  29.5777011  44.5850849  20.5499768  39.7366142  22.4802184   4.9370405
  40.6584549  22.6453829   4.7391531  39.2701483  22.7462959   4.1446736
  22.9362869  28.7139654  16.8936312  23.8289452  28.6721873  16.5506351
  22.9581189  28.1751633  17.6844835  41.3608074  77.8190613  59.6097088
  42.1428823  77.8574562  60.1602697  41.5040064  77.0612621  59.0427303
  31.7950892  55.1479816  33.5658383  32.4651933  55.0129128  32.8958011
  31.8656015  56.0755110  33.7915444  39.5785451  49.7055817  20.1838851
  38.6768293  49.9509335  19.9766541  39.5624495  48.7495518  20.2283335
  33.4058762  18.3086431  36.0968041  32.7412367  18.0570996  36.7380619
  33.0028224  19.0214622  35.6011534  70.1526451  24.7273517  37.2314739
  71.0939550  24.6140766  37.3631454  69.9078608  25.4244900  37.8400040
  58.7767267   9.0452850  17.3613024  58.4346628   9.4614828  18.1525064
  58.0343294   9.0326542  16.7572200  32.5329041  35.5524492  -0.0926167
  33.0833602  35.6574392   0.6834027  32.1536756  34.6783853  -0.0007929
  73.1194687  12.5301683  20.8329082  72.3559284  13.1066859  20.8622694
  73.8491106  13.0847728  21.1090851  23.0060387  36.2482738  26.3966417
  22.2501540  35.8503413  25.9647584  23.7434912  35.6892896  26.1518312
  58.2802248  76.5437031  58.4919739  58.2831717  75.7661724  59.0502453
  58.7148476  76.2621880  57.6869345  31.8999195  32.6727533   9.3556172
  31.4875555  31.8956494   8.9783931  32.1706152  33.1917667   8.5982656
  22.3103714  55.7445049  22.8810263  22.6912093  55.4089975  23.6925864
  22.8883648  56.4630222  22.6243424  34.7999263  66.3001299  38.9939547
  34.6421432  65.3593969  38.9141965  34.3860674  66.6789961  38.2184482
  71.6531706  77.0104694  70.1241016  72.3462772  77.2385263  70.7436371
  71.3999939  76.1194229  70.3652906  11.7142165  51.1181927  20.2290606
  11.0351777  51.7507219  20.4636765  11.2423885  50.4143763  19.7838032
  17.8838658  35.8674121  68.3159018  18.4785879  36.5529251  68.6202145
  17.0136225  36.2615943  68.3752918  65.9506845   1.0151769  61.7764616
  66.3007832   1.7974404  62.2027588  66.7171907   0.5865785  61.3956642
   9.5026958  32.4686980  57.0220137   8.9074159  32.2248030  56.3132191
  10.3539968  32.1275640  56.7478848  54.9973822  75.7992172  49.1358805
  54.3439007  75.5810642  48.4713459  54.4910717  75.9196424  49.9392319
  19.3816876  50.0136614  29.5215154  19.8471916  50.8340979  29.6840620
  18.5688078  50.0966644  30.0200820  67.1425533   0.0353702  22.6253176
  67.6456404   0.8465902  22.5541997  67.8050613  -0.6535897  22.6767993
  81.6283321  79.2941141   2.4612342  81.7476559  79.2600060   1.5121141
  81.1597919  78.4867096   2.6728952  19.8283339  27.5401258  29.1786051
  19.8071218  28.0136538  28.3470082  18.9104199  27.4794364  29.4431496
  48.0346012  50.7551861  38.9768767  47.7186298  51.6563988  38.9120102
  47.2701168  50.2178240  38.7694120   3.6629435  65.2794313  40.7128525
   3.1842402  64.5285463  40.3617907   3.7803569  65.0760555  41.6407967
  21.7188025  16.2379992  22.7283478  21.5027475  15.6402552  23.4440660
  22.0659685  17.0168149  23.1632638  28.0662322  53.6396551   4.8636585
  28.0649257  53.6798239   5.8200145  28.3890128  52.7615404   4.6612614
  11.9549310  45.3787041  29.4208002  12.4090803  46.1679649  29.1257715
  11.1577201  45.3492165  28.8918233   7.9377943  32.4205518  14.1815519
   8.6768776  32.2314262  13.6034358   7.1725452  32.3986292  13.6069691
  21.6635060   9.7130537  25.8754420  22.4106526  10.1722610  25.4918623
  21.0955358  10.4108286  26.2021708  77.8053522   8.8961166  35.6789160
  76.9168377   8.5927796  35.4924726  78.3559132   8.1258935  35.5379462
  16.5189719  25.3132629  54.1811609  15.6606114  25.7071137  54.3371391
  16.4849591  25.0172925  53.2715034  80.7273769   6.8265897  44.6940279
  79.7910309   6.6337430  44.7419786  80.8692646   7.1012342  43.7881184
  26.2965226  77.9177094  62.0237875  26.4832306  78.7267494  61.5475178
  25.9037638  77.3398352  61.3695431  73.5088301   1.4976288  15.5925512
  73.7873173   2.3572144  15.2766562  72.6226139   1.3910019  15.2468884
  54.1366339  63.3326483   2.6962641  54.6373987  62.8432083   3.3488834
  54.7797155  63.5666180   2.0269874  76.2942314  70.4038477  56.1144686
  76.5135574  69.9397469  56.9223881  76.5045643  69.7829866  55.4169559
  40.5369520  35.4703307  20.2719808  40.5093336  35.4818559  21.2287140
  41.4555836  35.6318784  20.0569248  52.6996374  55.3494787  67.6977682
  52.6474667  56.3033152  67.7586365  52.4855089  55.1556492  66.7851830
  68.1745911  17.5725198  20.1228952  69.0824461  17.8319144  19.9656093
  68.1251335  17.4354231  21.0689330  34.2288423   4.3677884  22.0094371
  35.1714158   4.3438074  21.8444681  34.1234231   5.0200796  22.7019954
  33.4320617  60.0794125   7.4239838  32.6690531  60.5702305   7.1187735
  33.0819678  59.4751310   8.0785894  25.9114242  40.1426220  13.3383393
  26.7509079  39.9979520  12.9017961  25.9050870  39.5135713  14.0597892
  54.1457510  66.5576267  69.1908455  54.2631054  67.3087549  68.6092424
  54.9535704  66.5228748  69.7031498  26.8360543  54.8930025  21.0140038
  26.4842558  54.5003462  20.2150726  26.5544534  55.8070421  20.9757352
  34.5284963  20.8896899  34.2486596  33.7825704  21.4820194  34.3433881
  35.2410483  21.4493346  33.9399552  45.5844927  39.8414707  13.3851385
  46.1363125  39.7112393  14.1563475  46.1798668  39.7329545  12.6435292
  46.1760664  40.8714962   7.9468369  47.0168686  40.9739065   8.3927023
  45.9735394  41.7457199   7.6137543  81.7675018   7.4651080  60.5850935
  81.2426281   6.7093939  60.8489799  81.2426567   8.2229811  60.8427763
  38.4470892  32.3737001   2.3935705  38.8406730  31.7296743   1.8048818
  37.6644611  31.9402599   2.7339488  77.6477480  53.6234331   5.1533449
  77.5678253  53.9103127   6.0630393  78.3773994  53.0039310   5.1607960
  20.5318117  53.3367348  26.3699985  20.4911637  54.2765141  26.1928105
  21.4251304  53.1900501  26.6809630  11.3390410  32.1004725  26.5679336
  12.2451437  32.2577429  26.8334055  10.8938217  31.8443847  27.3756647
   8.3610368  26.3308191  63.9125109   8.4738964  26.1961961  62.9715681
   8.9201844  25.6681490  64.3180370  78.7926006  66.3703394  17.0750916
  77.9642057  66.7886114  16.8404675  78.5992146  65.4329443  17.0639145
  47.9687262  69.5896435  20.4590321  47.7167797  68.7111616  20.1743841
  47.1383715  70.0524044  20.5712485  22.2666264  40.1165438  19.5219481
  21.5612841  39.7108412  20.0260568  21.8489718  40.3950882  18.7069583
  37.2827768  34.0899992   6.5906340  36.9061947  34.5265007   5.8265126
  37.9905701  33.5526776   6.2348992  12.9976630  24.9943352  69.9871445
  13.3053958  24.2428708  69.4803572  13.5547829  25.7190609  69.7032022
  75.6745195  23.4529281  57.5864458  75.0306845  24.1570997  57.6629305
  76.2403822  23.7232780  56.8632984   1.5742381   8.9009356  22.8419709
   0.7658385   9.3630528  22.6202297   2.1094358   8.9613771  22.0506811
  16.9573426  17.4330068  62.8778219  16.6698802  17.1330285  62.0154953
  16.4020240  16.9561958  63.4946728  81.2917614   1.5530913  37.4572492
  81.7344284   0.7162646  37.3158216  80.6311131   1.5944406  36.7658257
  63.4278440  39.6060514  12.2220206  63.1328058  39.7743988  13.1169212
  62.7044201  39.9049997  11.6710949  52.9147911  65.2620268  29.8669720
  53.0134296  64.4502831  30.3645396  52.2027397  65.7271385  30.3061604
  64.9866104  23.5146284  33.5068035  65.2527475  23.9394975  32.6913977
  65.7892132  23.4695792  34.0264511   3.0754146  39.7009540  59.6072483
   3.7553775  39.9850869  58.9963865   2.5132585  40.4683304  59.7137403
  46.0977316  42.0663548  15.6407309  46.9757700  42.3591471  15.8847785
  45.8379555  41.4741468  16.3464451  30.2289009  57.3748064  36.1605835
  30.2990794  56.6647053  36.7985988  30.9277391  57.9830074  36.4012980
  40.6079388  31.6137576   7.0312822  41.4107037  31.1890745   7.3336881
  40.3969526  32.2447824   7.7194142  46.5389490  56.6796064  24.5323420
  47.0460653  56.8277454  25.3305387  46.1731339  57.5378466  24.3182516
  31.2135315  27.4612069  15.6009078  30.9676242  28.1356525  16.2340629
  31.1218762  26.6378021  16.0803199  77.3901129  26.1154246  17.1113873
  77.4487448  25.3348756  16.5604472  76.7834806  26.6917133  16.6464937
  14.7599614  28.1623292  36.0341954  14.4379389  28.6315250  35.2645278
  15.6314957  28.5264349  36.1893868  45.5114508  31.2639093  17.1761298
  44.9440479  30.5524158  17.4728823  45.6694984  31.0743618  16.2512922
  23.2300377  52.2470188  12.5125897  22.8033090  52.0020199  11.6915476
  23.7853289  51.4973831  12.7269018   7.8471774  18.8071036  36.5458632
   6.9408596  18.9612627  36.2793040   8.0396193  19.5148420  37.1609282
   0.6591487  11.7461455  56.3800716   1.5965612  11.9391668  56.3953161
   0.2416175  12.5968158  56.2449503  56.3879251  46.6671658   2.6647308
  55.9346247  45.9345818   2.2475138  56.3504505  46.4702559   3.6007074
  66.8384123  61.2070704  57.1273422  66.8078947  60.2584457  57.2514677
  66.0991764  61.3969374  56.5496635  22.8771329  80.5090141   7.4667096
  22.5916696  81.3966846   7.6830208  22.8084660  80.4610252   6.5131831
  85.6079292   4.8957723  24.3854427  85.1515961   4.5961487  25.1717067
  84.9096298   5.1907313  23.8009739  23.1750917  44.9952555  11.7785048
  24.0619612  45.0076008  11.4185834  22.7472186  45.7569075  11.3872993
  10.8738482  15.6193531  51.4492273  10.5013597  16.4839232  51.2760162
  11.1797130  15.3147912  50.5948734  60.8985329  71.7421722  29.3975830
  61.2198305  71.8510103  30.2926564  61.5727663  72.1450043  28.8504386
  82.0923138  67.1926451   5.2909702  81.8249798  67.5242519   6.1481762
  82.8054428  67.7716827   5.0219250  58.2123852  66.4742613  20.9012532
  58.3736134  67.2788572  21.3940644  57.8197622  66.7708826  20.0802183
  17.9042947  43.7412405   9.3382019  18.6931515  43.9716673   9.8289567
  18.2259166  43.2371950   8.5907197  15.3662598  63.7037373  31.6831851
  15.3989232  64.1204596  30.8220768  15.9649789  62.9602671  31.6123390
  33.6421180  11.3365984  16.3951540  34.1477585  11.3612568  15.5827808
  34.2970085  11.4248073  17.0876622  14.9987113  53.1784296  18.0126703
  14.8172712  53.5236502  18.8868189  14.6479666  53.8399553  17.4163532
  42.9535580  36.6085839   4.0149868  42.2026062  36.1650300   4.4094053
  43.6211967  36.6050601   4.7009036  68.8243866   3.9286229  40.2354813
  69.5296717   3.4191132  40.6344891  69.2743492   4.6049121  39.7291279
  56.8623066   4.5795858  66.9545126  55.9958315   4.5338643  67.3586845
  57.4710894   4.4082251  67.6730204  50.0190163  72.0870447  42.0715475
  50.4435778  71.2364054  41.9602251  49.3181849  71.9241571  42.7028418
  80.4367924  17.3152852  41.6500568  80.6770897  16.5945411  41.0678101
  79.5388269  17.5347197  41.4015722  34.3015838  28.7706900   7.4023598
  34.6506596  29.5595622   6.9875598  34.6155286  28.8160205   8.3054739
  65.3992844  60.9570312  12.0907533  65.3675461  61.4214659  11.2543762
  64.7859669  61.4317513  12.6517475  20.9719253  48.4247780  11.8932486
  21.0545230  49.3324661  11.6008234  21.1577415  47.9036474  11.1121428
  28.3649564  80.5243015   5.5301720  29.2012429  80.6160831   5.0736272
  28.5325146  79.8690748   6.2075430  55.1471138  43.0211592  18.0881274
  54.6120214  42.2306871  18.1592798  55.4348040  43.1970787  18.9839602
  11.6526604  41.8388367  27.4787903  11.5897322  41.6854620  28.4215236
  10.7868493  42.1628189  27.2305179   0.2506017   9.5851249  62.4400234
   0.7504478   9.3405867  63.2188606  -0.3563999  10.2587116  62.7467203
  61.1766243  54.4226885  31.3186693  61.4659452  54.9702454  32.0485377
  61.8208551  53.7158155  31.2794900  16.2111676  38.4375477  17.4095082
  16.6395402  39.2902470  17.4845576  16.4844620  37.9623246  18.1941783
  69.2144156  61.9062185  15.0621593  69.4693708  61.1826420  14.4897377
  70.0416040  62.2392368  15.4101384  64.0841436   2.9954034  41.3911057
  64.1316223   2.1277094  40.9897518  63.1666946   3.2522288  41.2985516
  39.0202427   3.0565628  34.1780710  39.8897219   3.0964330  33.7797642
  38.6114836   3.8900679  33.9447951  42.1981907  17.8929651  31.2177372
  41.9550943  16.9980359  30.9805918  43.0733919  18.0093789  30.8480000
  50.5834532  68.3528471  22.5439692  50.5810738  69.3095016  22.5117612
  50.4329681  68.1438637  23.4658766  57.7045059  56.8582916  28.8223386
  58.5703850  56.9650078  29.2161584  57.2636509  57.6925135  28.9834309
  37.9398918  24.6300650  50.4672813  38.8204670  24.9918342  50.3675604
  37.5375700  25.1643729  51.1520290  37.1865582  63.2678890  26.8905640
  36.7646146  64.1180754  26.7665601  37.8094149  63.4112740  27.6031089
   7.2397774  20.2473021  26.2754226   7.1115154  20.7786751  25.4896593
   7.4054414  20.8839846  26.9707060  24.9319530  66.6524315  25.7905149
  24.2578959  66.5005159  25.1280951  25.2601123  65.7787228  26.0030580
  37.4265814  66.6503000  18.8043129  38.3012629  67.0016718  18.9707553
  37.4691629  65.7453918  19.1134405  47.1838760  14.7524345  17.5263250
  47.7852964  14.9111092  16.7987621  47.1476126  13.7990427  17.6035297
  27.3189497  57.7926159  37.7044725  28.2198286  57.9835558  37.4433446
  26.8116546  58.5342884  37.3746181  37.0532537  69.8897409  61.1844301
  37.7936864  69.4624853  61.6150618  37.3985124  70.7349682  60.8970022
  48.7254047  67.1540165  50.9902573  49.2246103  66.7737961  51.7130709
  47.8214264  67.1678495  51.3046837  54.1537619  32.4678183  21.7630672
  55.1008320  32.4328113  21.6286850  53.8056755  31.7805576  21.1949682
  10.5266953  57.0239305  12.6699412   9.8549485  57.7047396  12.6314068
  10.2611136  56.4665365  13.4013855  35.8630514  20.7873821  37.2905755
  36.3004017  20.8478737  36.4412832  35.7475662  19.8480821  37.4341440
  37.5817299  43.7065363  42.8234291  38.0718803  43.1526375  43.4310341
  37.4008703  43.1387091  42.0743704  58.2712650  57.1799517  31.8097472
  58.8517809  56.9844341  32.5452781  58.5349417  58.0540705  31.5223098
  16.2317097  33.4675431  68.4839344  15.9639513  33.5620046  69.3980551
  16.7334902  34.2612147  68.2980967  58.1984472  65.6556702  64.3878794
  57.5970125  66.0396147  65.0259161  57.6344109  65.3678513  63.6700726
  79.6277285  14.7001135  50.9800577  80.0386047  14.8026991  51.8384790
  79.6063042  15.5856967  50.6174088  74.2930651  16.5397644  55.1745462
  74.1092062  16.1581182  54.3161917  75.0810480  16.0865343  55.4743767
  49.6897884  28.1420658   0.5025236  49.9113842  29.0613459   0.6510203
  50.1808210  27.9012058  -0.2830370  12.2621739  65.6493378  50.7029390
  13.0262828  65.6297159  50.1267576  12.4618578  65.0106859  51.3873959
  51.8510866  34.0574813  13.7149656  52.0987320  33.2207537  13.3215272
  51.6445208  33.8426304  14.6245825  41.0449600  53.9771080  31.1173511
  40.9134436  53.2720661  31.7512679  40.2406883  54.4940472  31.1637735
  31.8116164  63.6908960  12.3129117  31.2491870  63.2709408  12.9637122
  31.2331772  64.2997408  11.8536222   3.6893770  33.8326311  50.8381653
   2.9509059  34.3289590  51.1910820   3.5979012  32.9609823  51.2229919
  55.6126547  56.4997149  32.7273250  56.5694761  56.4729834  32.7294970
  55.3882980  57.1030712  33.4357452  41.6977310  78.9472532  18.4623921
  42.5176287  78.5080528  18.6884451  41.9702244  79.7408962  18.0018342
   4.5603475  34.2566967   1.1080419   3.7552625  34.3716240   0.6032039
   5.1429915  34.9463391   0.7900014  20.1722836  80.1879406  11.0999358
  19.3734753  79.7009659  10.8974695  20.8732963  79.6771479  10.6950927
  21.7869115  57.8889179  52.7746010  21.9666100  58.4287834  52.0048714
  22.6428509  57.5463724  53.0320215  50.1902199  41.1590290  24.3312335
  50.4236174  41.5562630  23.4922099  49.3869400  40.6710434  24.1499949
  47.7173948  66.6121721  19.2178023  48.3097839  66.5238619  19.9644649
  48.0306482  65.9652185  18.5857010  35.9684682  37.9336214  28.4948730
  35.7561469  37.0259571  28.7123489  35.6507444  38.0458617  27.5989461
  72.1791315   8.8641953  69.4413710  71.7018318   8.9519960  68.6163235
  71.5115070   8.6098391  70.0784063   5.9323972  53.3605814  47.6074600
   6.0595596  52.6536417  48.2401562   6.0626650  52.9453135  46.7549276
  62.3227024  68.6532259  25.2180123  61.9652033  68.7739134  24.3383169
  61.5898228  68.3103037  25.7294106  42.1022797  23.9287901  10.6127179
  41.3424778  23.7448525  11.1650729  42.0674419  24.8737907  10.4644203
  34.3876743  45.9208536  21.3626909  34.8700309  45.1123953  21.1895967
  35.0494838  46.6104412  21.3106346  76.0122824  53.0898476  31.7789078
  76.1590052  54.0219641  31.9397449  75.0956345  53.0347824  31.5088081
  64.1263866  48.7994862  44.9498987  63.4814835  49.0267372  45.6197357
  64.1511154  49.5625687  44.3725538  39.1997480  43.4270573   0.1132032
  39.8437524  43.4138966   0.8212403  39.5835304  44.0019035  -0.5489844
   3.6741316  47.7455902  16.3573420   3.0577087  47.2421169  15.8255827
   3.5071573  47.4575377  17.2547698  11.0856903   7.9814124  65.0481653
  10.9973741   7.0399934  64.8992920  11.6999817   8.0517626  65.7788658
  78.9074755   2.1437624  19.7658336  79.3670511   2.5355470  19.0231848
  79.6041203   1.8849339  20.3691006  13.7343168   0.9332022  64.0264034
  14.1724324   1.5199190  63.4099197  13.7828863   0.0714206  63.6126328
  79.4782400  36.1781287  43.8375473  79.7908545  35.7343292  44.6259308
  78.5706043  35.8889198  43.7438488  82.5302792  60.5545855  21.4343333
  82.6462269  60.7445574  20.5033660  83.4118271  60.6140280  21.8025184
  29.6981597  40.8965921  55.5519247  30.2803397  40.1584101  55.3719664
  30.2576447  41.6687632  55.4684639  85.3264050  80.4796054  70.4261777
  84.5653347  80.2998878  69.8741741  86.0779814  80.2466299  69.8811227
  39.5982075  55.4781580  23.7529182  40.3511858  55.9306908  24.1330123
  39.9092817  54.5868540  23.5946727  67.3914623  51.1095285  47.3108768
  67.9781294  50.9030342  48.0384874  67.5728321  52.0276976  47.1101284
  41.1013842  80.3513336  42.0657873  40.5619526  80.0695038  41.3269901
  40.5330706  80.9349442  42.5684214  78.5349369  46.8461752  38.0466580
  78.6045074  45.8973932  38.1525064  77.6073694  47.0355654  38.1880260
  37.6445150  63.3088064  18.5005391  38.1079793  63.8662529  17.8754938
  38.2698655  63.1765223  19.2130482   1.5394092   7.5376648  57.0296526
   2.1690172   7.4744666  56.3114357   1.9284163   7.0210290  57.7353382
  42.6744938  63.5537148  22.9908562  41.8472195  63.4628820  22.5179935
  42.4211025  63.8687134  23.8584971  22.5709820  47.5838995  64.8276901
  22.6125121  47.6661777  63.8749361  22.3211241  46.6723108  64.9787045
  62.7373886   5.4233378  28.0355287  63.2862663   6.1992925  27.9221177
  63.0254316   4.8235577  27.3473954  35.3456163  49.0772629  26.7537451
  35.7266045  48.5421753  26.0574985  34.9122643  49.7960234  26.2935042
  74.4141722  71.7087030  42.7082729  74.7673559  71.6807079  41.8190527
  75.0222731  72.2694397  43.1899643  45.7710648  36.9652104  21.4888287
  45.2136850  36.2087440  21.6713619  46.3630104  37.0132589  22.2395110
  34.6219444  25.8861232  15.1188898  34.4243431  26.1999846  14.2364621
  35.5428433  26.1105680  15.2523112  35.3351593  43.7509203  30.5703497
  34.8017740  43.8774824  29.7856760  36.2364388  43.7402296  30.2481484
  27.5298238  58.1490517  27.3715734  27.6859975  59.0204096  27.7356815
  28.2686496  58.0000877  26.7815065  17.0889294   2.9660666   6.0824311
  18.0415976   2.9189894   6.0021901  16.9403744   3.5026693   6.8610328
  61.5813971  79.9922657  60.0063848  60.9747696  79.2723894  59.8331308
  61.4117861  80.2345657  60.9167433  26.4590240  37.8083444   5.7878059
  25.7256436  38.2110667   5.3228313  26.1700368  37.7652240   6.6993207
  68.7710905  50.7619333   7.2688586  68.8337183  49.8098755   7.1920997
  69.4350624  51.0950851   6.6652209  35.6235242  45.2363682  43.7053585
  36.4212513  44.9015188  43.2957983  35.5890489  44.7985983  44.5558882
  31.0280728  75.5106592  30.8054209  31.8601990  75.5146408  31.2784743
  30.4662013  74.9260092  31.3140583  37.7497673  72.3266125  46.0082388
  38.1074238  72.1436071  45.1394320  36.9846869  71.7555666  46.0774469
  51.7001009  58.6999702  24.6052742  51.1901379  58.8367796  25.4036808
  51.8955469  57.7629375  24.6035266  33.4385324  22.0981932  53.7569904
  33.1200933  21.5753317  54.4928169  33.9853406  22.7720594  54.1608906
  37.1895027  49.3295336   4.0345353  36.9107795  49.2549658   3.1218547
  37.2952676  50.2702045   4.1765776  44.3328905  76.9836664   7.8190339
  44.2317390  77.8002691   8.3080751  43.7541294  77.0838547   7.0632356
  35.8808994   1.8792392  18.5274124  36.5953422   1.7665216  19.1543889
  36.3174272   2.0924474  17.7026582  70.8588743  35.2336001  61.2467098
  69.9123669  35.1364279  61.1422300  71.0462284  34.8478699  62.1024799
  25.6993628  71.6521168   7.2636569  26.4970922  71.2200260   7.5688791
  25.9196997  71.9713449   6.3885707  76.9832659  62.3097134  33.8613605
  77.9371500  62.3596096  33.7993813  76.7160702  63.1822157  34.1504622
   5.7121760  80.1014233  42.7215528   5.4951465  80.0636005  41.7900467
   5.3027213  79.3208504  43.0947638  34.8800516  43.9066505  23.5786867
  34.2602611  43.2603073  23.9168167  34.4131708  44.3331289  22.8601003
  32.5064111  14.7704256  62.9560089  33.3660936  15.0983572  62.6921177
  32.0581341  15.5358922  63.3156490  59.2895174  62.5951195  38.5882711
  58.6426783  61.9520664  38.2979012  60.0044155  62.0700598  38.9480829
   5.1890743  25.7753325  57.9541206   4.8539865  26.5349674  57.4777746
   5.4232424  26.1177588  58.8167572  66.4959860   7.1545482  18.2998610
  66.9873047   7.0272177  17.4883032  66.6014814   6.3306105  18.7754965
  49.0742207  57.5101423  14.3219531  48.9265060  58.4557772  14.3081796
  48.4489107  57.1607780  13.6869967  37.1756387   5.5766296  39.8149443
  36.2413287   5.4160130  39.9472308  37.4371266   6.1043930  40.5694771
  41.7365122  53.4214687  12.0106637  41.7574883  53.6907530  11.0923624
  42.3999643  52.7344084  12.0739996  37.9754543  34.4997692  37.3147225
  37.5193191  35.3401828  37.2714329  37.4039412  33.9440799  37.8446412
  71.1378765  47.4760389  40.0322962  71.2690306  48.3828402  40.3093147
  70.2477694  47.2657108  40.3146076  16.9132614  29.0400767  47.5808620
  16.4100289  29.7428727  47.1696854  17.0794153  28.4183025  46.8723249
  43.3926916  52.6826048   3.5998768  42.7465868  51.9763660   3.6014110
  43.7347889  52.6961994   4.4937533  24.5669222  47.9350662  10.0448239
  25.1370168  47.2979164   9.6144009  24.7249627  47.8046513  10.9798360
  47.7035809  50.2723408   5.1892954  48.4411335  49.9169636   5.6852353
  46.9285011  49.9644375   5.6590641  60.1835680  48.1801796  46.5100098
  60.3994703  49.0981913  46.3460588  60.8543777  47.8824234  47.1244907
  21.8215919  27.5579762  14.0555024  21.8950152  28.4795785  14.3034720
  22.1161079  27.0775604  14.8292553  34.2735195  42.2615576  32.9002666
  33.7481117  41.5977192  32.4536180  34.8052239  42.6525497  32.2069788
  69.1782522   4.9733815   5.1507044  68.4101582   4.4489291   5.3770006
  69.4324112   5.3929555   5.9726495  64.2282915  33.5639119  53.8394785
  64.4115019  32.7820015  53.3186340  63.3458090  33.8254142  53.5766602
  25.1709104  49.8013592  12.7173579  26.0373950  50.1565552  12.9155338
  25.1347852  48.9751387  13.1993175  84.6818733  21.5751290  34.5973206
  85.1247883  20.8301616  35.0036287  84.6494961  22.2391987  35.2859402
  36.9642282  43.0750704  36.6747189  37.1402740  42.1692705  36.4202118
  36.2756371  43.0084658  37.3362613  69.6925735  77.7605343  59.9998569
  70.4930830  78.0610180  59.5695972  69.0931845  78.5041714  59.9368668
  15.0130355  58.2811117  27.3382616  14.6347010  57.4592972  27.6508522
  15.8231866  58.3775234  27.8388524  13.4576476  62.1641684  45.2761030
  13.5566533  61.4853096  44.6085835  13.8503122  61.7856646  46.0627270
   9.2038780  18.6383665  42.7422857   9.2176104  18.3301926  43.6484146
   9.1928971  19.5928097  42.8140450  47.7009159  66.2662266  -0.1071270
  48.5254103  65.7904075  -0.2073152  47.2967869  65.8837817   0.6717484
  27.3866558  30.7438660  29.4316792  26.8824148  30.9056163  30.2290559
  26.7257452  30.5695176  28.7615824   3.5659912  69.6676397  68.6352873
   2.8790814  69.8215580  69.2838955   4.2047879  70.3627491  68.7933874
  34.8957801  55.1086903  11.3837850  35.2695084  54.3173456  10.9960580
  34.2174530  54.7870827  11.9776452  73.0619240  53.7446022  47.5457954
  74.0171194  53.7092543  47.5966740  72.7858400  52.8290033  47.5868368
  49.0648842  -0.1535780  30.3164172  48.6783171   0.7197084  30.2518606
  49.6392393  -0.2182640  29.5534205  39.1923356   8.5747296  39.9071407
  38.4762621   8.2185167  40.4330540  39.9833775   8.1998229  40.2943468
  26.3820982  15.2106404  58.5679150  26.2860346  14.2648673  58.4560394
  25.5506253  15.4923773  58.9493704  65.2737713   1.6395366  67.5110245
  65.8989763   1.4245321  66.8188381  65.8163309   1.9505669  68.2356787
  20.2865672  41.0211611  62.5257015  20.0360441  41.8080139  63.0097818
  20.2724576  40.3227234  63.1800842  77.1649027   5.8228421  22.6779675
  76.9126987   4.9678800  22.3291659  77.6737642   6.2274998  21.9754386
  20.0596261   5.9304196  66.7342138  19.1474450   5.9733546  66.4473104
  20.2374411   6.7978531  67.0977736  45.0241852  65.7413292  27.1682048
  44.4466734  66.5025854  27.2247601  45.9035778  66.1125851  27.0970106
  17.3726583  48.5376310  13.9292681  17.7396619  49.3465996  14.2857969
  17.8958869  47.8416395  14.3268359  18.7848306  64.7556162  29.7739005
  18.8845778  65.6881237  29.9655104  19.6327090  64.4926310  29.4158912
   3.7820059  30.4656076  55.6285238   3.7288496  29.9350977  56.4234877
   2.8917339  30.4601073  55.2769327  82.0842361  28.0493784  66.8942547
  81.2036324  28.3886266  66.7339849  81.9426632  27.1623921  67.2250795
  47.3857927  61.6881847  12.0536208  47.6690578  61.0404015  12.6988840
  47.3243761  62.5063467  12.5466430   5.8145225  51.0320520  49.4718838
   5.7203239  51.7567205  50.0901175   5.9416521  50.2608347  50.0244141
  67.7217579  24.3448520  53.2030153  67.1927452  23.5570550  53.0775166
  67.2336197  25.0351548  52.7542019  73.7228203  44.9327278  18.4793365
  73.4617138  45.0859642  19.3873966  73.2559776  45.6024694  17.9796040
  13.7614560  80.7713890  63.5692978  14.6917629  80.6004238  63.7160301
  13.6934471  81.7259789  63.5503101  29.2446709  62.3069429  47.2756290
  28.9170504  63.1953049  47.4160147  30.1845288  62.3685217  47.4462414
  82.7930737  21.8615246  55.1779366  83.6682606  22.0538235  55.5145407
  82.2114563  22.4270511  55.6860018  22.4404454  55.9660244  17.6129007
  22.7554512  56.8591547  17.7519095  21.8818784  55.7885504  18.3696938
  80.7286072  39.6176028   1.0478652  79.9981022  40.1714230   1.3233224
  80.4854774  38.7385106   1.3382362   3.0654845  23.6644578  55.4599667
   2.4153835  23.4466052  56.1279058   3.0418798  24.6198058  55.4053497
  33.4248352  37.8636956   4.8948199  32.8173137  38.3669090   5.4369700
  34.1782236  37.7049375   5.4635340  21.2811708  69.4909048  31.2073731
  20.9222412  69.6779728  32.0747876  22.1807861  69.2106104  31.3757706
  83.5027695   2.2879404  66.3363838  83.9396667   1.9320087  67.1101189
  83.7393951   1.6869125  65.6299782  20.3539801  39.7474289  47.4417591
  20.8885336  39.4524693  46.7045450  20.4031277  40.7027054  47.4061680
  54.4970894  75.1938725   8.1028944  53.7238121  75.6866932   8.3774829
  54.1562128  74.5241117   7.5100577  36.4263797  70.6136942  17.5672972
  36.0150576  70.0412226  16.9197464  36.0531950  70.3360128  18.4038723
  83.8167000  33.6785245   9.4933921  83.8192558  33.7267089  10.4493749
  82.9372406  33.9603710   9.2417175  60.8700466  56.5748596  19.5785964
  61.7254019  56.5879107  19.1491497  60.2416992  56.5138721  18.8590848
  17.9983389  24.3084502  58.6213684  18.3152866  23.9675069  57.7849865
  17.2501016  24.8578978  58.3879566  19.1000795  52.1886730   9.9292767
  18.7124741  52.8487206   9.3545294  18.5941327  51.3945150   9.7573537
  15.3253436  66.9348764  12.3879230  15.0632262  66.5957212  11.5320611
  14.9394476  67.8099585  12.4272048  83.5566711  46.6281796  51.7716408
  83.6481571  46.4570713  52.7089691  83.5067940  47.5818253  51.7060089
   4.0533429  17.2439635  59.8520756   3.1830049  17.0561886  60.2034760
   3.9991057  18.1505501  59.5497656  48.0957937  25.4715824  27.4545240
  48.3196545  24.5681810  27.6780987  47.1996975  25.4209757  27.1218371
  46.2949056  32.2700550  70.7844042  46.0364026  33.0518629  70.2963592
  47.2063369  32.1210815  70.5327546  44.8813009  67.1162415  56.1210871
  45.0414801  67.9882431  55.7602739  44.8215342  67.2553873  57.0662308
  14.3424499  68.6685705  69.6637058  13.5600078  68.1907082  69.3886328
  15.0441825  68.0184126  69.6305466  74.7576571   4.6808293  57.2497511
  74.8302460   4.0489471  56.5344238  75.0984907   4.2170018  58.0145550
  35.7229114   6.7581701  58.6066628  35.8072710   6.0271895  57.9944658
  35.9132290   7.5346375  58.0802488  14.3610990   7.7788234  12.9368043
  13.4239125   7.9090703  12.7920663  14.6902215   8.6467028  13.1706738
  22.2646666  76.4379930  13.3510542  22.2361541  75.5720139  13.7578750
  21.6331434  76.9573355  13.8487434  78.4255219  69.2006779  62.8911591
  78.7354326  69.2846918  61.9894218  79.1011524  69.6282101  63.4174347
   4.9227276   6.3594496  13.0795538   4.4771624   5.6261116  12.6553857
   5.0839156   6.9834787  12.3718548  55.2954245  11.6591287  65.2491713
  54.8135042  12.0248270  65.9909582  56.1342335  11.3851988  65.6201029
  12.9165971  21.8287301  63.9153624  12.8787827  21.8136930  62.9590273
  12.0229161  21.6283298  64.1935778  59.2266417  80.1601219  17.6490009
  58.3389902  80.1489735  17.2909796  59.1107750  80.3965664  18.5692716
  45.0910664  58.3925200  12.2622240  45.5588484  58.6633730  13.0521929
  44.2979240  58.9283752  12.2579491  83.6589813  14.0348387  63.9017630
  83.0170918  13.6097229  64.4705200  83.1693268  14.7340536  63.4686756
  61.2135649  35.2354050  25.1238823  60.4960489  35.7702303  24.7842288
  60.7826996  34.5671654  25.6568408  86.1840926  72.5233030  67.9734898
  86.3531537  71.6498518  67.6203203  86.8823828  72.6622534  68.6132717
  64.6174192  43.3640623  50.0394964  64.4489574  42.5012207  50.4181242
  65.2652550  43.2023239  49.3536520  37.5609279  55.4984522  13.6897349
  37.9898548  54.6664095  13.4898412  37.1833062  55.7795525  12.8562987
  42.0376253  59.6779299  39.0967560  42.4278402  58.8038826  39.0977383
  41.5745449  59.7325468  38.2608104  40.2956104   7.4733794   7.8649116
  40.2527523   6.5939981   7.4892998  39.4225097   7.6214474   8.2282376
  21.8734002  53.9944696  43.9252377  22.8302574  53.9785528  43.9052391
  21.6100979  53.2512474  43.3825350   1.5254538  14.5957088  25.4789543
   1.3767841  14.2244899  24.6092844   2.4656761  14.4925904  25.6258583
  74.2266130  51.6180325   3.3127484  73.7164879  52.1919775   3.8842270
  73.5879230  51.2710810   2.6899070  30.8815074  44.9032784  43.2032824
  31.7340493  45.2513075  42.9419756  31.0849881  44.2448711  43.8676071
  54.2896318  51.4183283  23.1154704  54.6399736  51.4725876  24.0045977
  54.4554043  50.5144882  22.8474617  10.3897285  48.8336992  19.3435311
  10.8357930  48.4258127  18.6013138   9.4756752  48.8992596  19.0670526
  36.7844892  70.4761505  21.0493326  37.1424317  71.3581610  20.9484982
  35.8766007  70.5510712  20.7554674   7.7690578  21.7482567  23.9624000
   8.3902049  21.0695791  23.6981964   8.3052069  22.5333190  24.0739942
  43.4045458  49.9573755  -0.1260852  43.2274008  49.3505001   0.5926308
  44.3069553  50.2422571   0.0179034   3.5626680  28.2041359  57.4686432
   2.9559579  28.3597565  58.1924629   3.0340892  27.7628708  56.8037224
  61.5070868  77.5385284  41.9019842  61.2638855  78.4024096  41.5691185
  61.4383936  77.6203251  42.8532076  35.3414583  57.5756502  10.7290411
  34.7098470  57.7113914  10.0227296  35.2726007  56.6436529  10.9360957
  73.5199213  27.7788448  66.3282061  72.9203415  28.0888438  67.0069027
  72.9562902  27.3321843  65.6965017  31.4790583  20.5786133  40.2997923
  31.2554336  21.3268495  40.8533001  31.6011524  19.8545027  40.9137869
  64.0841150   0.5736275   1.4516741  63.8769674   1.4319475   1.8212789
  63.2353830   0.1401374   1.3623846  25.9265971  46.9750977  65.0503492
  25.8655763  47.0938492  64.1025066  25.3736377  47.6664019  65.4144430
  58.2460928  15.8490539  70.6159258  58.7125444  15.0256681  70.4720736
  58.6990452  16.4815259  70.0582123  51.6843987  36.3183689  56.7904806
  51.5184164  35.9115434  55.9400892  50.8601618  36.2212992  57.2673893
  61.7067957   8.7347478  26.6093779  62.5511742   8.5002136  26.9944072
  61.1003399   8.0722666  26.9403768  69.6501398  79.8764896  57.3730135
  69.2223406  80.5149937  57.9435730  68.9374399  79.3191195  57.0605612
  20.1632261  16.3591731  60.5449629  19.2750466  16.0725236  60.3323650
  20.0816512  16.7752528  61.4031315  36.2978768  76.5807247  31.2684345
  36.4979243  75.8550692  30.6771326  36.0689211  76.1587572  32.0965385
  50.7355547  24.5695782  24.1659760  50.1673174  25.3306413  24.2847872
  50.4694557  24.2011738  23.3235383  -0.1263581  81.3039589  42.2084904
   0.2681490  82.1495533  42.4219513   0.5435503  80.6613541  42.4419737
  17.8755963  40.7103300  66.3271427  17.9186535  41.5047884  66.8593216
  16.9454706  40.4851103  66.3078213  10.8602595   6.7512238  45.6597185
  10.4800975   7.5936413  45.4106379  10.1606631   6.3042414  46.1361694
  82.2707367  50.8740568  36.5078783  81.4848328  51.0692167  35.9974861
  82.0613194  50.0617695  36.9689202  82.1793842  67.4983120  12.1627569
  82.7508545  67.1501875  12.8472054  81.3216305  67.5715590  12.5812209
  68.5811996   2.0200200  29.2782855  67.9068851   1.3739459  29.0682268
  68.3445787   2.7899665  28.7611508  27.3467493  76.6637564  20.3594756
  27.6049614  75.9613180  20.9562492  27.1407342  77.4017811  20.9331512
  57.3709011  78.2058144  49.0663958  57.1462917  77.8736115  48.1972456
  56.7136335  78.8789654  49.2427397  57.2251034  67.0493841  18.3702374
  57.2420073  66.0954809  18.2926583  56.3052797  67.2835016  18.2463717
  74.9105597  72.9130983  10.6095254  75.6381989  72.7903080  11.2191927
  75.0298262  73.7999868  10.2697635  48.5759306  57.6941347  37.1941257
  47.8445864  57.0898390  37.3213792  48.9737272  57.4182081  36.3683844
  68.4094095  23.7388277  40.3075695  68.1032515  23.1718874  41.0154390
  68.4249115  23.1719899  39.5364118   7.6022440  18.8134074  11.0562956
   7.2096795  19.2833781  11.7919946   6.8558502  18.4617972  10.5710137
  85.1257420  44.5288515  69.3841743  84.3753910  43.9438581  69.4889927
  85.1079845  45.0832987  70.1642418  14.4967592  68.7498569  17.4802089
  13.6785066  68.5788965  17.9465449  14.2275560  69.2086363  16.6844189
  82.7056694  50.7364464  54.3400383  82.8964996  49.9347878  54.8270321
  83.5309219  50.9562731  53.9077616  67.8858852  65.6886816  56.5042591
  67.4739075  66.5277863  56.2983131  67.3745060  65.0442791  56.0149002
  75.2684021  33.7905073  70.4200554  75.1785803  34.2841434  69.6048927
  76.1958361  33.5566330  70.4574776  51.4302349  54.1687536   9.0497774
  51.0387993  54.4902182   8.2375741  51.3042641  54.8823500   9.6751922
  25.6207371  65.9886980  13.5220015  24.7416925  65.7021427  13.7697828
  25.5749893  66.9446325  13.5399771   9.5904624  66.2481928  47.3561668
   9.4641924  65.4011106  46.9286871  10.4290521  66.5637827  47.0194101
  61.4943933  68.9141130  22.3917365  61.9851875  68.2187033  21.9538307
  60.8448076  69.1919994  21.7459464   2.4173009  19.1553104  12.7677548
   2.4963623  18.2413077  13.0408490   3.0186361  19.6296918  13.3418536
  60.5647755   1.4696226  34.8617816  60.3167534   0.6348111  34.4645309
  60.7390261   1.2562609  35.7784843  18.1262147  39.5823622  48.7596369
  18.9415538  39.4418454  48.2782745  18.1555724  40.5039549  49.0166140
  59.8172283   9.1488969  12.7529085  58.9998341   9.0914279  12.2581375
  59.7801828  10.0057495  13.1779528  58.0368471  53.3807421   8.0867594
  58.3904839  52.6501226   8.5940725  57.5226068  52.9650640   7.3946613
  45.5357265  48.2142496  58.8043451  44.9458694  48.7024403  58.2299137
  45.4967070  48.6802387  59.6395493  38.4562492  79.4973707  25.2491832
  39.1374016  79.3811989  24.5867896  38.0906129  78.6214542  25.3729224
  62.8215504  75.0693464   8.8667792  63.5325098  75.5263233   9.3161613
  62.5453711  75.6743383   8.1783444  57.7223253  80.1761246   3.1541523
  56.8159294  80.4584122   3.2765919  58.0745602  80.1099873   4.0417260
  71.1753368  44.8103094  55.5267382  71.8383265  44.4753695  54.9230099
  70.9675598  45.6834078  55.1939249  62.6004934  68.2275772  29.9306273
  63.2469463  67.5503397  29.7314429  61.8956947  68.0787325  29.3002796
  58.8017988  48.5435867  51.1183167  59.0555954  49.4661808  51.1436033
  58.2319975  48.4728241  50.3524494  83.5156631  19.8221326  60.0908947
  83.2963753  20.3050566  60.8877182  84.0861797  20.4145122  59.6011686
  65.7240915  31.4987087   4.5893484  65.1160574  31.9028163   3.9702970
  66.3425016  31.0184312   4.0387708  34.2903066  33.8808751  18.0978906
  33.8982344  34.4030976  18.7977457  35.2338195  33.9837646  18.2221079
  18.2042193  62.8431463  37.9812145  18.2771301  61.9677925  38.3615708
  17.9706669  63.4062576  38.7191796  25.0000811  29.7837090  62.8794527
  24.4886780  29.1789675  63.4170294  25.5861735  29.2191601  62.3754549
  48.1029987   1.8728812  45.1130486  47.2276545   2.2151351  44.9317503
  48.1643009   1.8658061  46.0682535  35.2696419  75.4171801   5.4555655
  35.9654903  75.4873800   4.8020393  34.8340964  76.2692785   5.4341543
  70.6922007  54.2461252   2.7905342  70.4106903  53.4271765   2.3827305
  70.8119106  54.8499346   2.0575152  82.0137882  25.8542156  11.7242873
  82.0596123  24.9106622  11.5698886  81.9258308  26.2358427  10.8508694
  16.9529963  43.1928301  24.6201611  17.0846450  42.3833513  25.1137638
  16.4766109  43.7652588  25.2215028  14.2224145  59.7378969  18.8829541
  15.0260556  60.1512241  19.1984773  13.9619374  60.2658415  18.1281972
  71.6046858  16.6928923  35.7230544  72.1018410  15.9610808  36.0884643
  70.7331848  16.3324201  35.5594325  70.7420015  34.2494011  12.3926854
  71.5734911  33.7952876  12.5292218  70.4268932  34.4427490  13.2756078
  86.3240814  53.1148434  28.7700558  86.6113186  53.9816761  29.0569758
  85.4416561  53.2562542  28.4271860  23.7760782  78.2377911  39.4637561
  24.0317369  78.2841587  40.3850174  24.5382762  77.8631544  39.0222406
  46.6628170  78.9684677   6.2430102  45.9685135  79.6026182   6.0640460
  46.6246748  78.8323545   7.1897155  68.5475683  80.0340462   4.3310788
  69.4704247  79.8143578   4.2033786  68.4954453  80.9703159   4.1389483
  48.1537485  63.2679653  32.8632116  48.4743452  62.5321388  33.3847618
  48.5342026  64.0409470  33.2803273  74.9287462   8.9556766  35.5492020
  74.6996689   9.6999866  34.9926424  74.4703388   9.1224146  36.3727903
  21.9043016  57.8681898  25.1975441  21.8284559  58.3291769  24.3620992
  22.4054980  57.0792484  24.9911332  23.8106203   0.6841902   1.5840077
  23.1219721   0.9329478   0.9674722  24.0998912  -0.1778507   1.2849431
  40.4802656  35.1752543  36.6039920  39.5765448  34.9151516  36.7825007
  40.7199478  35.7322168  37.3446512  28.5948610  75.0480986  22.1005869
  29.3276000  75.5922604  21.8121243  28.8286662  74.7836065  22.9903126
   4.7964120  44.3474674  65.2400684   4.5063478  44.9800396  64.5828390
   4.0459871  43.7654638  65.3599262  23.1174612  67.3547220   7.0364988
  23.8490033  67.7856016   6.5944368  23.0318570  66.5115356   6.5915930
  82.6200008  31.3911366  64.4975615  82.9953671  31.4674997  65.3747749
  82.6530743  30.4543781  64.3036032  23.9047170   8.3259612  23.1465697
  24.6354175   7.7434093  23.3537984  24.1288114   9.1526175  23.5739493
  55.0823641  52.3861694   2.5043207  55.4374409  53.0962944   3.0389923
  55.4906464  51.5948105   2.8554431  86.2492371  14.3432105  29.5104313
  85.5253029  14.4889593  28.9014077  86.0429382  13.5092258  29.9325037
  59.5809269   7.8121078  23.5767341  59.6645498   7.2950757  24.3779302
  60.2650023   8.4777546  23.6487412  39.4323802  58.8792133  24.7551823
  38.6919856  58.6577606  24.1903734  39.9597096  58.0808496  24.7828579
  32.2396851  68.3121395  12.7903938  31.2836027  68.2689238  12.8069413
  32.5152349  67.8162384  13.5613561  10.0612211  74.2128706   2.7739152
  10.4251945  74.9805498   3.2148501   9.2511988  74.0257740   3.2483530
  67.0258522  72.2329378  40.0474787  67.3652887  71.9129086  40.8832979
  67.7662563  72.1613073  39.4450665  76.7148972   9.1305381  10.2731538
  76.3826323   8.9113808  11.1436701  77.6414728   8.8922691  10.3034711
  41.1369085  57.7034950  30.0555825  40.7094193  57.4910355  30.8852506
  41.6843128  56.9414616  29.8661661  83.4034634  24.7053742  18.1568241
  82.9641724  24.7041035  19.0072668  82.7085686  24.5105457  17.5280142
  62.2941971  48.2072830  28.3098698  62.2373199  48.2144594  27.3543882
  63.2211304  48.3571911  28.4957576  33.7354469  19.2671585  59.7112703
  33.5410357  19.0810668  60.6298590  33.4032416  20.1538372  59.5710087
  50.6765318   1.5639269  28.5162020  50.3441286   2.4604309  28.5611486
  51.6252565   1.6639003  28.4377170  84.9386692  65.9672356  31.5899014
  85.1900291  66.0834837  30.6736374  84.7669888  66.8544245  31.9055772
  73.3697557  78.6895990  47.0239210  72.4429083  78.9036798  46.9173813
  73.5829258  78.1594181  46.2560034  82.1408749  38.0645466  63.9799833
  81.6910458  37.8624606  63.1595898  82.3159981  39.0043616  63.9319134
  30.2810168   6.3483202  28.9687443  29.8901582   6.2875497  28.0970979
  29.9226928   7.1563292  29.3361092  24.0627313  59.8216820  14.2710316
  23.4518218  60.1636791  14.9237633  24.5092082  60.5972385  13.9313185
  42.4751043  55.2638578   5.3275609  41.6841173  54.8445797   5.6663513
  42.3227930  55.3366709   4.3853658   4.8960748  49.5299196  66.5205717
   4.2218783  49.4942713  65.8420277   4.9273318  48.6409426  66.8740940
  50.6134892  69.1302586  29.4801426  49.8935032  68.7561941  28.9722729
  50.1968479  69.7861385  30.0391245  60.2545977  20.7235408   0.5715078
  59.9575710  20.5950046  -0.3293165  61.1300755  21.1004138   0.4835623
  72.5002241  73.6060238  12.3082638  72.8998995  74.2641401  11.7396057
  72.8602171  72.7738810  12.0013893   9.3318826  10.8298445  19.1787910
   8.6352414  10.7524157  18.5269260   8.9145082  11.2592816  19.9255264
  45.8331108  37.9102969   9.3411595  45.2002573  38.2710958   8.7202299
  46.5102243  38.5832238   9.4112736  84.3709755   1.7238592  43.0778170
  83.5552597   1.2660256  42.8747654  84.0977669   2.6152939  43.2944584
  30.0498414  20.2353430   8.7078124  30.0939465  20.2962518   9.6620536
  29.2075610  20.6296730   8.4813184  27.9387689  79.9541998  27.4384356
  27.6418495  79.1260147  27.8154993  27.2432184  80.2033043  26.8298411
  58.3757925  31.8489790  13.7185693  58.0417299  32.3433423  12.9700780
  59.0517807  32.4123430  14.0952528  53.2871056  62.4946690  31.2147355
  52.9349518  62.1714306  30.3854394  54.2291927  62.5686312  31.0623097
  29.6713305  45.4261732  26.6986084  30.5980968  45.5500555  26.9035149
  29.6355653  44.5795965  26.2533355  51.3268757  26.3907123  59.4064713
  50.7011175  25.8739519  58.8989162  51.7694998  25.7507944  59.9639845
  35.3127909  74.4776201  26.2439322  35.8242297  73.6752224  26.3479543
  34.7677755  74.5178318  27.0297909  47.8148174  70.8136368  63.4646034
  47.2684717  71.5885353  63.5960007  47.9385424  70.7657576  62.5166416
  28.9469504  54.0186167   1.1763987  27.9908943  54.0587330   1.1524051
  29.1414642  53.1502342   1.5289697   8.7970579  29.7498035  29.8576474
   8.4922951  29.2607260  29.0933466   8.1794518  29.5190048  30.5515671
  10.7643521  35.0642276  68.2017183  10.9138155  34.8547912  69.1236877
   9.8963869  34.7076297  68.0127573  60.4057741  53.2515049   0.3823335
  60.6633139  53.0160475   1.2736604  61.1949825  53.1095982  -0.1403993
  62.9768801   9.7383028  53.1463051  63.2929468   9.4867873  52.2785091
  62.3522329   9.0523100  53.3818102  38.6060715  24.9218440  65.5218458
  39.4641948  24.8170757  65.1108980  37.9811835  24.7843933  64.8099089
  23.4342527  34.6996164  23.4957528  22.6418352  34.2926240  23.8459897
  23.1188655  35.2830148  22.8055310  67.3970270  68.4811115  15.9445000
  66.4664364  68.3817673  16.1453891  67.4168158  68.7410498  15.0234830
   6.1017954  51.2309408  14.6117103   6.9008625  50.9067249  15.0271690
   5.5009681  50.4861403  14.6342421  20.7630873  17.9840350  46.7389107
  19.8803961  18.0135095  46.3698339  21.2131476  18.7304878  46.3433218
  52.3122358  64.9957848  13.8059211  52.3268414  65.5812836  14.5630288
  53.1802654  64.5924282  13.7982953   7.2082061  15.6758833   8.4959459
   7.2234952  15.0095558   9.1829729   7.3420453  16.5020168   8.9605111
  61.5377951   5.4341555   3.3651909  62.1275234   4.6966639   3.5218969
  60.7367754   5.2045864   3.8362542  25.0164008  73.8294697  16.2123728
  25.6525493  74.2834520  15.6597006  24.9975824  74.3378878  17.0231676
  50.1117659  59.9251842  29.3569970  49.2037487  60.1037312  29.1123319
  50.4630375  59.4214487  28.6227679  34.0033865  51.2749720   0.1071235
  33.4723353  51.8649244   0.6420760  33.7050843  50.3982687   0.3492748
  78.0507994  53.3131170  12.4233639  77.9018641  52.3895359  12.2207689
  78.0637884  53.7464523  11.5699685  57.6827002  81.3929367  25.4535651
  57.5836372  81.9769287  24.7016525  58.3514309  80.7642078  25.1820445
  25.8843732   5.0350589  64.3480015  26.4819288   5.7556260  64.1481447
  26.4250565   4.3980414  64.8150158  36.5294647  68.5367918   0.5868068
  36.2512493  67.6415873   0.7802860  37.4497604  68.4529495   0.3372895
  23.1933975   5.8222997  16.2242091  23.9026666   6.1570144  15.6754494
  23.4785843   4.9435461  16.4745951   4.7007835  20.5553198  17.5896537
   3.8489664  20.2319312  17.8830123   5.3104985  19.8475587  17.7983510
  62.3945236  24.0272260   2.2965162  62.3446608  23.0760407   2.2016943
  62.7520275  24.3326283   1.4627588   4.9622133  17.3453784   2.7204177
   4.6963912  17.1673667   1.8182634   5.1888663  16.4865696   3.0772185
  30.9930778  61.2236643   6.7862535  30.7366443  62.0242882   7.2439438
  30.2314568  60.6490707   6.8637413  76.0656309  21.8944120  60.4765892
  76.4722109  22.4560118  61.1365366  75.9827089  22.4537802  59.7042799
  69.8472118  70.8824778  34.2639470  70.1396942  70.4477024  33.4629107
  68.9998436  71.2636185  34.0338826   1.3300793   5.0598496  38.8831592
   1.4358944   4.7554097  37.9818535   0.9151408   5.9183067  38.7988424
  12.5285530  35.7157898  48.4985924  12.8954756  34.8320389  48.5227776
  11.5948510  35.5922198  48.6693621  23.5981441  41.2087393  47.4104786
  22.8233266  41.7244816  47.6338625  23.8609338  40.8014917  48.2359028
  67.0779943  68.7803221  42.1729565  66.1789560  68.7343454  41.8476105
  67.0100784  69.2622614  42.9971886  74.5985222   1.7107238  18.3552146
  73.9768362   2.1534546  18.9329064  74.0972376   1.5250383  17.5611985
  73.5231829  13.0475032  45.3427458  73.0753517  12.2513866  45.0566006
  72.8427553  13.5622776  45.7766342   1.9509758  32.7455783  37.0669270
   1.8823782  33.4343624  37.7280641   1.3510966  33.0190849  36.3729739
   0.9765764  14.0235758  60.4417849   0.9607053  13.1989825  59.9559641
   0.1730240  14.0107191  60.9617567  78.7086916  66.1978769   6.5537620
  77.9792309  65.6322098   6.8070191  79.1970825  66.3366556   7.3652089
  32.1731091  10.0069308  66.6270590  31.2922144   9.6638000  66.4770031
  32.0489502  10.9509742  66.7250252  28.1084704  44.5722103  69.6048069
  28.1167173  44.1359425  70.4567623  29.0247440  44.7956562  69.4412613
  35.7626843  25.7452631  10.2632785  35.2200890  25.4367352   9.5375842
  36.6261029  25.3683877  10.0938559  79.0115309   1.1697038  14.5748055
  79.5880604   0.6331684  14.0307665  79.0125418   0.7339204  15.4270518
  50.0307751  54.2958403  25.6082606  50.7409668  53.9076233  25.0972295
  50.4678535  54.6974993  26.3591695  39.1412139  53.2347250  13.2686615
  39.9092340  53.4051418  12.7233768  39.4910550  52.7983570  14.0454674
  52.8788900  64.2060614  24.0891242  52.5254679  64.0710211  24.9683785
  53.3903360  65.0122499  24.1577768  67.5953388  67.7378559  23.7857914
  67.0211840  67.7993155  24.5492029  67.3078680  66.9449663  23.3331108
  14.9544811  62.3369455  54.3556166  14.5394170  61.5041494  54.5801401
  14.2654848  62.9894590  54.4810820  62.3349667   3.5505536  50.6791592
  62.6843405   2.7862003  51.1373472  61.3860321   3.4259927  50.6945753
  17.7846134  21.9301987  68.5876417  18.0331266  21.1911058  68.0324745
  17.2539175  22.4886632  68.0195665  80.1091862  80.2999878  61.5657997
  79.7759104  79.4379044  61.3168669  80.7343292  80.1213932  62.2683239
  74.6966839  32.7945900  44.6022606  75.1498175  33.5974979  44.8596430
  73.8453436  33.0923080  44.2816210  67.7193022  65.3574514  29.6481085
  68.5658407  65.7886696  29.7649479  67.9311609  64.5235348  29.2286682
  75.9376621  60.4125166  14.5570505  75.4395056  61.1598349  14.2260027
  75.2781439  59.8390388  14.9474263  73.4294939   3.9344862   9.6069735
  73.5140753   3.6592066   8.6941212  73.7327290   3.1809813  10.1134443
  35.9783483  15.0943804  59.6791315  35.4650569  15.5265391  60.3617764
  35.4507661  15.1898170  58.8861752  59.9032402  67.0660543  11.9421804
  60.0936699  66.5696335  11.1462331  59.7554779  67.9610682  11.6366529
  56.2887287  35.6130171  10.3711784  55.3595066  35.8185935  10.2686036
  56.3193035  34.6572518  10.4137552  50.0953817   4.3877748  28.1391454
  50.6151152   5.1906061  28.0995297  49.2692852   4.6568301  28.5408998
  81.8843269  38.1248856  60.8038235  82.4645519  37.5336123  60.3242636
  81.0832500  37.6182485  60.9373236  14.8494649  19.7983479  61.3692141
  15.2589667  20.6029677  61.6872215  14.3772781  19.4540977  62.1273470
  24.9132991  25.8532834  68.4937954  24.6378803  25.0763822  68.0071783
  24.2869234  26.5304828  68.2382774  37.6629996  67.5181484  15.6553793
  37.2037077  67.1225071  14.9146008  37.2316289  67.1524239  16.4276469
  35.1397204  79.7371817  10.8562016  34.4037676  79.2053366  10.5533111
  35.2667308  79.4734764  11.7675507  53.1782866  69.7842741  28.8543391
  52.3290539  69.6478319  29.2743564  53.7416315  69.1061735  29.2272449
  33.5326576  69.9044991  30.0996876  33.8092160  70.7307005  30.4960918
  33.3848357  70.1184750  29.1784954   8.8906395   1.5037753  29.9534082
   9.8258060   1.3344245  29.8393226   8.4763819   0.6488363  29.8363543
  60.2163649  67.0356321  43.3741999  59.8502064  67.9191065  43.3338022
  59.4587088  66.4687109  43.5183811  47.3455143  52.8851032  29.6830845
  47.5427580  51.9576645  29.8141646  47.9158163  53.3410692  30.3020263
  55.1620531  62.5035477  24.0274572  54.2947531  62.8696966  23.8543534
  55.4188967  62.8830957  24.8678184  37.3498726  61.8211555  13.8736975
  36.6938591  61.7478037  14.5668757  36.8959904  61.5305090  13.0826545
  22.8906202  64.8353958  10.4272270  23.3954668  64.2394543  10.9805930
  23.0516315  65.7023382  10.7996762  50.3929138   6.7302650  33.2690454
  51.1430311   6.1999643  33.5379958  50.5043030   6.8412864  32.3248529
  76.4783430  32.9046893  50.6112289  75.9834480  33.5023880  51.1716461
  76.5535164  33.3663869  49.7761154  67.5615025  56.4879656  27.2971010
  68.2409477  56.5337276  26.6244268  66.7389250  56.4972925  26.8076992
  56.1222172  76.6364861  27.8664756  55.5129957  76.8726349  27.1669650
  55.5746365  76.5703201  28.6487865  60.4489470  23.6023736  26.4937305
  61.2946177  23.8529301  26.8656111  60.6714106  23.0673575  25.7318258
  35.2394104  47.8939247  66.9924498  35.0249887  47.9942179  66.0649824
  35.3453541  48.7899542  67.3120403  57.4801874  56.1072731   7.5788206
  57.7957869  56.9023514   8.0083340  57.8963327  55.3930283   8.0614263
  51.5242386  72.4509859  67.2464228  51.0119247  73.2562542  67.3192692
  51.9420958  72.5098515  66.3872576  50.4427246  56.8113615  70.2662888
  50.0756578  57.0939221  71.1039361  51.2951927  56.4389600  70.4917762
  66.1154032  76.7569447  33.9898109  65.1819229  76.5983582  33.8494706
  66.4826584  75.8896637  34.1606283  37.1446419  33.0356956  67.4924850
  37.3241019  33.8878942  67.8897047  37.2239661  33.1888294  66.5509510
   6.9986254  23.1562281  50.0493717   6.7386734  22.3068762  50.4061031
   6.1748403  23.5701513  49.7919273  14.3519318  53.5913897  49.9705839
  13.4320903  53.6488152  49.7120762  14.8000824  53.2649755  49.1903019
  60.8919191  12.7881205  47.4379063  60.9100962  13.6973476  47.1392298
  61.7439318  12.4348581  47.1819592  12.7977705  23.7285280  33.7241936
  11.9218826  23.8760233  34.0809798  13.3756411  23.7616634  34.4865561
   5.6837213   6.6693980  22.2241449   6.2618262   6.3763422  22.9285216
   4.8127654   6.3755888  22.4912477   5.1502699  79.3721867  13.7976968
   5.0491279  80.2763557  14.0951669   5.6273407  79.4439888  12.9709673
  52.7105236  56.0815859  24.0033603  53.0086946  55.9540558  24.9039531
  52.4161625  55.2148247  23.7235165  21.4946818  60.3501177  26.5060759
  21.2590384  61.0454226  25.8918619  21.8081665  59.6361780  25.9508729
  24.3467093   2.3026718  46.0669947  25.0099444   2.7201036  46.6166353
  23.8874722   3.0318278  45.6502628  65.4163694  68.0201817   7.8844070
  65.2187490  68.5717392   7.1274638  65.7969570  67.2260475   7.5092632
  30.6914234  24.4600224  14.0255976  29.7451210  24.6038985  14.0322781
  31.0003257  24.8605466  14.8382413  39.9172044  61.2435675  53.7549925
  39.9738073  61.9270325  53.0872297  40.0013638  60.4243994  53.2670212
  11.0981345  35.5014443  43.7042856  10.9698570  36.4486814  43.7544680
  11.6753995  35.2985930  44.4403887  26.5284705  10.7832694  22.8297734
  26.6916275  10.6374621  21.8979216  25.9332156  11.5324688  22.8543496
  34.6009040  69.0843344  16.1692083  34.9333405  68.6174250  16.9358337
  33.9790058  68.4762907  15.7695103   7.0576078  79.4763470  20.3071141
   6.2478673  79.8615360  19.9721813   6.8999743  79.3650055  21.2446570
  31.3855648  20.4365325  63.6636829  31.1504316  20.7322693  64.5431662
  30.9660578  21.0674334  63.0786991  66.8366718  71.5393639  28.9341283
  66.6099167  72.3042536  29.4630480  66.0975981  70.9418297  29.0479374
  33.1415844  21.2763500   0.3862993  32.9161882  21.8538880  -0.3430013
  33.9244199  20.8115888   0.0906684  52.1961832  72.6131392  46.7427063
  51.4644146  73.1096220  47.1091175  52.9087496  73.2490253  46.6784859
  55.6709671  79.2979097  24.5936275  55.7247686  80.2378464  24.7664428
  55.1005316  78.9597368  25.2838969  31.1533666  81.1046982   5.0432837
  31.8383574  81.4155197   5.6352359  31.6173244  80.5672550   4.4013092
  50.6913614  74.5546484  53.4026623  50.3909302  73.8303375  52.8537178
  51.6104221  74.3550205  53.5807180  36.7681241  40.1841927  33.3560920
  35.9790874  40.7097197  33.2238913  37.0453763  39.9419475  32.4725294
  71.8026638  13.8188398   6.4878076  71.8784142  13.0369902   5.9408116
  71.3286018  14.4471991   5.9431380  79.5665550   4.4870672   1.7605527
  80.1593304   4.4411036   1.0103953  78.7981987   4.9528062   1.4304776
  83.9440060  23.3008170  57.9602146  84.5660114  23.9173126  57.5738525
  83.0856323  23.6895657  57.7919960   5.2817231   1.5252231  30.8653378
   5.8562189   0.8230797  31.1705923   5.4483610   1.5789634  29.9242878
  74.0325689  26.4666677  27.1140409  74.4640636  26.2969446  27.9514408
  73.6075687  27.3162675  27.2314525  50.5666542  35.9285927  11.7504013
  50.7821321  36.7699718  12.1527493  51.1092234  35.2935743  12.2179520
   4.7851062  40.1200485  53.0737638   5.2366233  39.2794752  53.1499243
   4.7581306  40.4593611  53.9684010   8.0356336  65.9055853  42.4103451
   8.7252152  65.9833384  41.7510557   7.3512542  66.5051031  42.1129656
  76.3673830  40.6678104  28.1807637  76.8310881  40.0884914  28.7854099
  76.1098909  40.0996685  27.4547172  37.4036574   1.8071115  16.2376618
  37.4984193   1.1855194  15.5159450  38.2940078   1.9289319  16.5673065
  84.0082550   6.3810539  70.2022696  84.7161674   6.0055774  69.6787071
  83.3166695   6.5715003  69.5684910  54.2087221  22.1579885   8.7126017
  53.3529854  21.7501330   8.8452613  54.7889090  21.4301538   8.4892941
  43.5714912  22.9713392  23.1877017  42.8659201  22.3634458  23.4087563
  44.3698740  22.5235868  23.4675837   3.4537354   0.0053141  45.7940960
   4.3756431   0.2607728  45.7615519   3.2141075  -0.1438657  44.8794603
   1.0162323  16.9932222  20.4194307   0.3136896  16.4192450  20.1141191
   1.5435538  16.4404440  20.9961438  12.6536083   0.9284361  16.8061304
  12.8548169   0.4931648  17.6345539  12.3066676   1.7828879  17.0625997
  60.5531597  60.9882736  61.0681915  60.5596066  60.4852676  61.8825483
  61.4307833  60.8680677  60.7054758  14.4237971  14.4079506  11.0986388
  13.7753952  14.8118711  11.6754019  13.9249396  14.1430187  10.3258622
  36.2099314  36.2588072  19.9845684  36.6504145  35.8529162  19.2379367
  35.7344556  35.5403590  20.4016852  22.9053164  31.5375948  29.7220063
  23.2070422  31.4100361  28.8226056  22.7114964  30.6547666  30.0370955
   9.2933536  47.9611301  60.2721596   8.9213324  48.3383131  61.0693836
   9.9166101  48.6190844  59.9641371  85.2613163  76.1837769  63.9682627
  85.5192089  76.5570021  64.8111343  85.3262520  75.2372980  64.0955019
  61.0403967  28.4798908  32.7401114  61.0243988  28.2343435  33.6651444
  60.3398991  27.9625010  32.3428178  67.2846699  67.2167158  66.0944891
  67.3771763  66.4845800  65.4848623  67.9259253  67.8608465  65.7942915
  12.7275610  19.2886949  59.4304848  13.4894776  19.4721067  59.9800968
  12.7582204  19.9584734  58.7473392  17.9772174  24.9861550  41.5553427
  18.5250902  25.5083060  42.1413708  18.3457625  25.1372480  40.6849527
  38.0619907  47.8692341  41.8876314  37.3667669  48.0564165  41.2568760
  38.1026745  46.9135380  41.9226503  34.3246937  70.8272934  20.3444791
  33.8740134  69.9898815  20.4533935  33.8455629  71.2676287  19.6425033
  23.1918621  68.9543247  26.7121649  23.6794972  68.1311607  26.7411995
  23.0006409  69.1518974  27.6290250  33.7474680  11.4486551  28.9786339
  33.4791780  10.5370283  28.8637900  33.8860345  11.5406108  29.9212766
  40.0705957  34.2122364  24.4543028  40.6278944  34.6305656  23.7980628
  40.6400251  33.5698199  24.8777175  32.2596979  55.2220440  28.4181714
  31.3818312  55.5545664  28.6052775  32.2561145  54.3291092  28.7629724
  38.0207658  41.2594843  16.3765466  37.2484970  40.9216261  15.9230196
  37.7414012  41.3542557  17.2871542  54.4073725  25.9386826  65.7060719
  54.2027950  26.4219642  64.9055624  53.6135864  25.4373646  65.8926678
  72.9053736  65.3166676  59.7959280  71.9617033  65.1586008  59.8230124
  73.0564928  65.9802246  60.4690409  23.5481477  22.9126453   0.3601746
  24.0601778  23.4614849   0.9541718  23.2233191  23.5186791  -0.3057408
   2.6310882  75.4031372  21.5017819   2.8430820  76.3355875  21.4590693
   1.8411946  75.3124380  20.9687972  25.4360247   9.1168690  33.5511255
  25.3011036   9.1808194  32.6056409  25.1843882   8.2193583  33.7688065
  60.1956320   5.3980118  67.6614237  60.3987598   4.7363350  68.3225965
  60.2471304   4.9284270  66.8289137   4.7985682  36.8351841  54.3996525
   5.3997207  36.1162448  54.5945168   4.8268482  36.9193912  53.4465790
  60.8839321  55.1069784  56.2353992  61.3371277  55.0522137  55.3940630
  59.9612284  55.2131844  56.0039520  58.8260365   5.5719066  35.4546261
  58.3975029   6.2178713  36.0161591  59.3558598   6.0929620  34.8512840
  15.3773820  70.3889990   8.5960525  15.5395246  69.7448492   7.9068398
  15.9985805  71.0944986   8.4154642  13.0604708  34.1053867  37.0873594
  12.2817004  34.4910574  37.4886131  13.7108254  34.0935659  37.7895927
  33.8375521  20.7485271  47.4292803  34.5568967  20.3540277  47.9223776
  33.0487537  20.4806089  47.9007149  50.0377750  13.4634757  17.6364982
  49.8165989  13.2356501  16.7334998  50.9337378  13.1466079  17.7508771
  28.4111118   2.7321309   3.4965575  27.5184321   2.3937362   3.4269467
  28.3368468   3.6552900   3.2547024   8.3642858   8.3362150  11.3878512
   7.4567610   8.3131611  11.0843730   8.3011544   8.5676587  12.3145020
  79.3956852  68.2595730   4.9980578  80.0362015  67.5503111   5.0521457
  78.8716602  68.1702852   5.7940829  42.2624922  56.8924427   8.3919483
  42.1628094  56.9576073   7.4421859  42.2678947  55.9516239   8.5682154
   3.5107595   0.6238776  63.7612247   3.4106198   1.3028827  63.0940247
   2.6693335   0.6103375  64.2173529  53.4806156  44.8709583  16.9486368
  54.2067575  45.3463221  17.3523331  53.7238169  43.9486885  17.0292723
  62.2010088  14.0709996   4.8904404  61.7565536  14.2698264   4.0663299
  62.5223207  14.9179697   5.1996869  37.1767163  13.7712181  45.1870584
  37.5313139  14.5482397  45.6191778  37.4253845  13.8735735  44.2684078
  10.5614352  47.1553802  31.8335962  10.7189858  46.8909407  30.9272408
  10.1174343  46.4048624  32.2283387  13.8496435  37.6789308   2.1114886
  14.4268763  36.9161606   2.0766242  12.9686224  37.3099303   2.1737154
  61.4003658  63.7796783  45.6586742  62.0620394  64.2398977  45.1423264
  60.6314087  64.3486881  45.6244564  41.9280910   9.6372801  69.6244144
  41.0721445   9.2088306  69.6285009  42.2965002   9.4281912  68.7660456
  25.4340601  38.4261632  38.7208343  25.3843236  37.5584793  38.3197331
  25.6702209  39.0100455  38.0000401  20.8340693  62.3085785  22.3760009
  21.5140605  62.6718521  21.8086576  20.0217080  62.4308300  21.8847179
  84.9806499  80.4593182  49.1081810  84.4380856  79.8135710  49.5608091
  84.3685913  80.9349823  48.5466099  47.1526432  33.7732196   7.4368149
  47.6260900  34.3484426   6.8358177  47.3547840  32.8889394   7.1311700
  12.1277547  63.3193350  24.4714522  12.5273252  63.3570099  23.6024570
  12.4994481  62.5334930  24.8721123  84.6826172   4.5071304  54.5288706
  84.6673393   3.5985839  54.8297691  83.7795830   4.8080760  54.6297884
  15.8709180  29.6729040  30.2353835  15.3667629  30.3001642  29.7171164
  15.5146408  29.7521782  31.1202645  74.7514153  16.4013481   4.5209038
  75.6488562  16.2818193   4.2101866  74.2228031  16.4240682   3.7232280
  73.0838394  68.5751438  37.6465034  73.2459784  69.0691376  38.4501910
  72.5153828  67.8547382  37.9187298  52.7128172  78.4679270  44.8766899
  52.5122023  77.6934814  44.3511248  52.6324749  78.1698895  45.7827520
  33.1306601  33.5006309  15.4022300  33.5518169  33.5780668  16.2583053
  32.6037717  32.7040172  15.4656935  58.8450480  76.1405611  43.0906916
  59.6104622  76.4704514  43.5613728  59.2013168  75.5056572  42.4692392
  20.9660530  22.3034811  15.7690585  21.7724276  21.9118547  15.4334712
  20.2651000  21.8239117  15.3275704  63.1527185  67.8412628  63.8928413
  63.2138062  67.2419548  63.1489801  63.6939812  68.5899305  63.6423111
  13.4290516  38.0369091  39.3675923  12.7104998  37.9276800  39.9904752
  13.0412042  37.8335381  38.5164499  17.8816247  53.4985161  18.8495481
  17.3403668  53.0762386  18.1824994  17.2776449  54.0737534  19.3191648
  63.4855080  17.7240980  19.1869962  64.3816137  17.4471247  18.9959323
  62.9886198  17.4836814  18.4049892  45.0412846  37.9732299  15.8508897
  44.9606323  37.2704411  15.2060544  44.1406155  38.1594419  16.1161304
  42.2758627  29.8796248  17.8007734  42.3967695  30.3698015  18.6140001
  41.3269091  29.7879815  17.7151823  26.4915371  26.9464922   7.2659326
  26.2526274  26.6651940   8.1491238  27.4313402  26.7750168   7.2059584
  40.1836348  67.5290823  34.6399689  40.6988096  67.4486732  33.8372469
  39.9342537  68.4526300  34.6730137  47.9867983  35.5635190  12.5974452
  47.5690413  35.4552865  11.7430449  48.8684225  35.8765697  12.3950505
  52.4234009  61.3863039   7.2270530  53.0611038  61.8990564   6.7304128
  52.4048376  60.5363131   6.7872769  39.4762945  31.9867015  35.5610991
  40.3350592  32.3016310  35.8431911  39.1566706  31.4686179  36.2997890
  81.1380386  13.7880647  55.8745098  80.6305027  14.1252100  56.6127253
  81.4238167  12.9193485  56.1571693  32.8391051  51.9327736  23.5860252
  32.8890729  52.5864601  22.8885794  32.0814013  51.3948679  23.3562994
  45.8689880  26.0068083   6.9071567  46.6280937  26.4702129   6.5532583
  46.0307407  25.9669566   7.8497487  15.7446826   3.1516889  60.0201368
  15.2443862   3.9613739  60.1218462  15.4053319   2.7599502  59.2153931
  43.9096594   0.5658335  66.6717148  44.7856665   0.9483010  66.6210985
  44.0631056  -0.3770611  66.7320204  70.0541925   3.0039138   2.0915967
  69.8050690   2.1041639   1.8803616  70.6284952   3.2684225   1.3729572
  22.5753570   8.4992093   2.0657551  22.3264813   8.7277210   2.9613417
  21.9368529   8.9538318   1.5163335  11.4352977  22.7988648  61.2938738
  10.5797780  22.5839281  61.6655159  11.3026226  22.7561665  60.3468752
  43.7386751  42.9354477  30.5157709  44.4648409  42.7651262  29.9158525
  42.9655838  42.6102352  30.0544739  33.0753398   6.7567241  34.2583990
  33.6992550   7.4265748  33.9786458  33.4539843   6.3967502  35.0604463
  80.4068375  59.2165709  33.9951944  81.1999893  58.6807299  33.9997411
  80.6809139  60.0532866  34.3707323  49.0269470  71.5079689  47.3118258
  49.5543385  71.0862637  46.6334057  49.1804743  70.9815073  48.0963612
   5.7235146  56.0089159   7.1721756   4.8591661  55.8892345   7.5656348
   6.1935467  56.5669250   7.7917910  12.4919891  32.4321413  11.7592943
  12.9238892  33.0646825  12.3333895  13.0756986  31.6735172  11.7566741
  64.7864342  40.9949780  51.1628199  64.8643208  40.3438759  50.4655123
  64.4726515  40.4994297  51.9192600  65.2119303  80.6697369  57.6641417
  65.2405787  79.9473619  57.0367813  66.1236191  80.7942009  57.9278994
  22.3381424  52.2988844  32.3080969  23.0507421  52.8372097  31.9636536
  21.6625261  52.3340750  31.6309428   4.8010790  41.9961548  16.8512678
   5.4638374  41.8393469  17.5238705   5.3008038  42.0934772  16.0406911
  58.8846207  28.4529567  11.7475283  58.4963036  28.7201977  10.9144473
  59.4988346  27.7571988  11.5132356  15.3118932   2.7325746  62.6761818
  16.0951602   2.3769055  63.0959749  15.5461729   2.8006443  61.7505932
   6.9755954  68.9424372  60.1572132   6.0286057  68.8030148  60.1596260
   7.3437518  68.0902052  60.3904343  57.6523018  11.2027502  11.6948164
  58.0588722  11.3208830  12.5532901  56.7136621  11.2914789  11.8600845
  26.9535136  36.6288638  15.0933743  27.8872538  36.4412713  14.9976170
  26.5179777  35.9378576  14.5943248  38.2461643   8.7902039  33.7052703
  37.9613781   8.2774472  32.9488254  39.0135622   8.3233005  34.0359282
  49.1140747  31.0530019   1.0366018  49.8089647  31.6301727   1.3531953
  48.3685923  31.2404370   1.6070026  60.0166273  27.4640918  27.6705813
  60.5376530  26.7296720  27.9952264  59.3069696  27.5539565  28.3066201
  22.9871511  32.4172235   1.4226043  22.5574350  32.8308463   2.1712637
  22.7191520  31.4995074   1.4695747   6.9667017  12.3562825  55.4515743
   6.1666286  12.2564232  55.9674644   7.2805798  11.4615202  55.3207588
  59.4138575  12.4102902  22.8876019  59.6654987  11.5431178  23.2052803
  59.9467134  13.0174160  23.4011126  23.0421138  47.8898525  57.3381042
  22.7940249  47.0639372  56.9227123  23.7911677  47.6648808  57.8899527
  45.7648563  29.9303484  22.3350406  46.6410160  29.9781346  21.9525623
  45.3419113  29.2052841  21.8750024  83.0186558  10.9694541  49.1922617
  82.1520901  11.0620224  48.7963676  82.9860401  11.5233326  49.9722528
  44.2374134  32.7362752  11.4123595  44.3578053  33.5952902  11.0075986
  43.4291029  32.8209400  11.9180250  46.6594458  68.9429092  64.9671841
  47.0424509  69.6601343  64.4620848  47.4115086  68.4917021  65.3506517
  43.3144188   7.9222834  48.0648565  43.7216568   7.3418301  48.7078714
  43.1783962   8.7441248  48.5363483  19.5196927  27.8353262  57.1203947
  20.2620339  27.2844362  57.3687553  19.7169685  28.1142068  56.2262249
  56.5618324   7.1551484  13.8137162  57.0552731   6.3582528  14.0079021
  56.9958591   7.8366524  14.3269467  40.5127048  44.2247438  12.1260250
  40.1663923  44.4238329  11.2561595  39.9080753  43.5731888  12.4811757
  12.2950149  63.3728456  69.8121786  12.4466074  62.8111792  70.5723000
  11.4850652  63.0396652  69.4259071  15.1368201  72.9934120  16.1209643
  15.1448655  72.5159264  16.9505274  15.8586025  72.6143312  15.6194067
  20.8666682  38.1156301  32.1061563  20.6531167  37.2525311  31.7516327
  20.5517125  38.7311006  31.4441657  56.5712452  64.4475794   4.5658827
  56.9618750  65.1889801   4.1033190  56.4721584  64.7531319   5.4675770
  86.1781979  26.3585925   2.1530378  85.2440357  26.1524820   2.1200743
  86.5290928  25.7731795   2.8241530  85.3274727  37.8039742  38.0967879
  85.4788113  36.8897986  38.3368087  84.5445728  37.7806854  37.5465512
  30.8021307  69.5483065  15.4520202  30.5448699  69.8335505  16.3287687
  31.1385703  70.3397751  15.0317562   6.7598820   4.5836589  67.3067760
   6.8692362   3.9242327  67.9919291   7.5733209   5.0877607  67.3275089
  30.7352042  33.1342673  42.1409559  30.3945136  33.7885237  42.7509642
  31.6388774  33.4052563  41.9791794   0.1292928  64.0504074   3.7046981
   0.0788816  63.7301970   2.8040558   0.9882387  64.4688749   3.7623918
  63.6012840  15.0850046  41.0098696  63.6880445  15.5734837  41.8284607
  63.6576509  15.7521093  40.3257465  55.8781624  64.1112375  35.0765848
  55.0466108  64.5046043  34.8119783  56.0665464  63.4673738  34.3938112
  40.2619410  24.6626043  23.1207275  40.2703047  24.4566512  24.0554714
  40.1382685  23.8166904  22.6901865  48.0146217  27.8997946   5.7016301
  48.3193064  28.6901617   6.1474097  47.6368427  28.2178378   4.8816538
  62.4129963  27.0503330  43.3190918  62.5298119  26.2267637  43.7927151
  61.5897417  27.4049926  43.6547947  74.4000292   9.7143185  12.4879527
  73.7932491   9.6432412  13.2248342  75.1801920  10.1265037  12.8590095
  45.8697319  14.0567458  37.9079103  45.0567245  14.5462811  38.0328512
  45.7034111  13.2076955  38.3174038  18.8202250  21.7056322   9.8130667
  18.8645780  20.7495403   9.8006541  18.4499848  21.9392967   8.9618587
  41.7872238  36.2184739  23.3863306  42.3017883  35.8803129  24.1192007
  41.8684673  37.1697164  23.4553838  25.8537674  60.5870247   3.6254942
  24.9769688  60.5131245   4.0023160  26.2551022  61.3186502   4.0944105
  44.1005993  54.2722654  22.4650645  43.4416962  53.9748335  23.0924559
  44.5074272  53.4670353  22.1451735  65.4787636  27.5956583  21.2299967
  66.2567568  27.8622556  21.7197728  65.7395220  27.6623082  20.3114152
  72.6698828  24.6915793  45.9214687  72.0730209  24.8506141  45.1902390
  72.1632242  24.1561842  46.5321112  49.2814732  61.6709089  48.4254026
  49.3041134  62.6023149  48.2058430  50.1560593  61.3512468  48.2037163
  17.7960801  11.7710161  59.0945959  17.4478722  11.5057898  58.2433367
  17.7363884  10.9825301  59.6339989  13.8795388  15.0484324  49.2042446
  14.4240510  15.0742030  49.9910545  14.4891787  14.8345470  48.4979677
  67.1359253  60.9642315  47.8957462  67.5202799  61.3648224  47.1159840
  67.5274086  61.4409828  48.6276531  37.8993273   9.1319597  44.2683172
  38.0476451   8.3073509  44.7311926  37.7317333   9.7694474  44.9624014
  33.0567408   3.8096848  55.7055187  32.9321122   4.7505057  55.5807924
  32.4208593   3.5711926  56.3800621  13.7647188  53.8700485  20.8782578
  13.3595610  54.2957544  21.6338086  13.7297773  52.9355717  21.0826063
  28.0504084  73.9509249  65.3270864  28.9362931  73.6148405  65.4630470
  28.0822206  74.3687773  64.4664907  14.0623915  67.8118992  66.6314602
  14.0371811  68.7655973  66.7093086  13.4116757  67.5028563  67.2617722
   3.0758196  57.0987654  12.2240365   3.9750880  57.2090769  12.5328720
   2.7893391  57.9840946  11.9996464  73.0641127  55.7118034   5.9202760
  72.8154325  56.6188717   5.7424498  72.3283529  55.3548670   6.4177519
   5.3061312  48.3438683  10.2741301   4.5956880  48.9844418  10.2399421
   5.4573333  48.1048584   9.3596661  17.3422897  27.7762389  32.5395036
  17.6838458  27.0150232  33.0086756  17.2164285  27.4678493  31.6421270
  49.8542213  33.0438662   7.0789504  49.9500465  33.4884834   7.9211879
  50.1592159  32.1515322   7.2431076   2.6756939  72.4877262  51.6589403
   3.2253981  71.7061949  51.6017437   2.2682096  72.4312115  52.5232267
  58.6192942  64.5447731   1.7845267  58.7906790  64.6870422   2.7154499
  58.4215689  65.4162359   1.4414725   1.8260866   8.2605147  67.6677895
   2.5192544   8.1739080  67.0133829   1.4205568   7.3941880  67.7032280
  65.8672047   2.5418508  48.4359837  65.5539036   1.6445960  48.3219290
  66.7764807   2.4439429  48.7185764  79.0385437  26.0642314  52.2112322
  79.7362471  25.7521367  51.6350031  79.1569901  25.5681133  53.0212116
   6.6224945  53.9235878  23.1418324   6.3020003  54.0544605  24.0342379
   7.5542533  54.1378593  23.1881332  12.8533435  15.5633438  22.1800566
  13.0627656  15.5554438  23.1140327  12.9603672  14.6534216  21.9028950
  40.3599787  15.4701090  35.1259160  40.3402185  15.3417969  36.0742688
  40.6009388  14.6134734  34.7732878   1.5719104  57.3427391  59.7942543
   1.0539836  57.9847527  60.2798510   1.1587101  57.3047256  58.9316702
  50.1092529  23.7809086   7.3848498  49.6208286  23.5809064   6.5863067
  51.0268736  23.6590600   7.1412086  10.1044405  46.3621330   1.3347532
  10.9282243  46.7506599   1.6291286  10.0266147  45.5535030   1.8410063
  39.9798751  12.3377824  58.8565207  40.6191301  12.2910869  59.5674419
  39.9390364  13.2673371  58.6318159  51.1287355  39.1559982  18.5872436
  51.7346430  38.4350014  18.4161651  50.9599257  39.1088295  19.5282590
  40.1525545   9.4269621  19.9974418  40.2559090  10.3497815  20.2297235
  41.0414314   9.0727001  20.0223517  60.9307051   4.1962269  46.8477964
  61.6794872   4.3964326  47.4094629  61.3182926   3.9826393  45.9990406
  30.4745674  17.5752342  22.9077125  30.1561975  16.6767538  22.8204918
  30.2904296  17.8072882  23.8179183   1.7668034  71.1457300  25.8279896
   1.8042991  71.1110020  24.8721552   1.0826813  70.5191422  26.0637760
  39.2479086  24.3306351  33.1555343  38.4042931  24.2768550  33.6045933
  39.2245030  25.1732111  32.7019382  55.7885695  22.3756528  15.2549875
  55.6177521  22.5320625  14.3262303  55.1159906  22.8817534  15.7107675
  14.9640715  15.7096112  51.7228603  15.8617938  15.3788245  51.7529631
  14.6079350  15.5150628  52.5897789  38.8681531  12.0044315  54.1313314
  39.2860699  12.8292632  53.8838863  38.0899239  11.9542789  53.5762882
  48.2309580  20.8362603  24.9115372  49.1006804  21.2097669  25.0540590
  47.7947569  20.9144187  25.7599759  85.8908081  29.6713042  64.2418575
  86.1265469  30.3725314  64.8492622  84.9980927  29.4302297  64.4891930
  51.2131023  28.1818676   5.7097363  50.7460165  28.9111829   5.3021014
  52.0901108  28.5249710   5.8811003  24.6059608  14.6997881  52.0659304
  25.2306151  14.0988672  52.4720526  24.8999596  15.5696607  52.3363352
  53.0764532  19.2618775  22.9003692  53.1310701  19.9783802  23.5327220
  53.9133883  18.8048446  22.9833865  26.2739778  36.4061737  55.7159042
  26.5620661  35.9441853  54.9286270  26.9468856  36.2107706  56.3680124
  72.4836540  58.9625025  48.5949230  71.9897318  58.8282204  47.7860737
  72.9606819  58.1426048  48.7231827  74.5077658  78.7710571  55.8324289
  75.3437757  78.5681009  55.4127502  74.5481730  78.3215714  56.6765642
   3.5790014  20.1779747  62.3498678   4.0790606  19.4097304  62.6255035
   3.8790107  20.8791900  62.9282522  53.8134861  59.9096584   0.4420059
  54.6777630  60.3031301   0.5621403  53.6151361  59.5048618   1.2864172
  68.5556221  79.3730545  47.5643682  68.2747555  79.0155220  48.4066963
  68.5118818  78.6301994  46.9622993  22.8128648   5.3352857  60.9957123
  22.2123241   5.5108887  60.2713203  23.5729837   5.8886600  60.8161831
   7.4715012  23.7871075  60.1666069   7.8080666  22.9922462  60.5803108
   7.0306623  23.4771395  59.3755245   3.7826240  69.0981531   5.7989770
   3.5184994  70.0061989   5.9470409   2.9988942  68.6748552   5.4485226
  25.4392815  36.4066195  34.7562885  24.4821906  36.4209819  34.7553134
  25.6925082  37.3039556  34.5397305  58.6511946  50.0089598   4.4115302
  57.9173708  49.9745035   3.7978983  58.7885523  49.0981865   4.6720234
  44.7201777  18.0491126  29.2556405  45.1051092  17.7051246  30.0617003
  45.4364014  18.0297208  28.6209130  73.2864523  26.4644432   6.7089182
  73.5113859  26.5402341   7.6362211  72.3298550  26.4935327   6.6913486
  15.0532913   6.7157817  43.8274288  14.4324541   7.3651737  43.4971476
  15.2310276   6.1503816  43.0757856   6.5963668  79.5098495  48.4277058
   6.7214465  78.8350677  47.7604294   7.0693326  79.1812277  49.1922569
  77.8512383  39.2726541  38.1030846  78.1554508  38.3756328  37.9650927
  78.0367279  39.4492602  39.0253830  70.8299017  56.2743092  70.0536823
  71.5598869  55.6582737  69.9915504  70.1663351  55.8088112  70.5628157
  68.1811810  74.8121691  65.0817299  67.9796839  74.3474674  65.8939409
  69.0877199  74.5737076  64.8879290  61.6268492  79.4352722  16.0990906
  62.0800924  80.0345325  16.6921246  60.8458042  79.1653776  16.5821660
  35.1989388  12.3683083  38.5766554  34.8555589  11.7143834  39.1855097
  34.5112085  13.0320907  38.5251641  38.2591128  20.0398803  35.3049231
  37.5091338  19.4455278  35.2824116  38.9963627  19.4856238  35.5608416
   5.1742655  66.7990828  14.9920154   5.2222294  66.7155313  15.9443545
   5.5933774  67.6388264  14.8038459  24.0208483  58.1813860  11.3482571
  24.9070191  58.4661055  11.5715623  23.6170340  58.9496279  10.9445584
  67.9640770  78.1178522  50.4109621  68.9012957  78.2878399  50.5056238
  67.5412464  78.8566637  50.8486843   4.3967885  24.4330311  49.8045206
   3.7169629  23.7957931  49.5854330   4.0879092  24.8448849  50.6114864
  54.8821592  59.9000978  23.6603284  55.0568724  60.8359718  23.5611033
  53.9272976  59.8350096  23.6756492  73.9009571  41.1621904   9.7502911
  73.3163357  41.1251020  10.5073071  74.7795486  41.2030649  10.1279604
  76.5246868  66.4203835  65.9739542  76.5532827  65.7438040  66.6504622
  77.4194288  66.7582607  65.9351587  55.0987864  57.1022463  16.3237238
  54.8217869  57.8744173  15.8305204  55.1017952  56.3946724  15.6790793
  68.9840412  49.0660572  61.5275860  68.7455511  49.0150881  60.6019735
  68.4247875  49.7576952  61.8812847  56.7032194  19.6744680   2.7069116
  56.5134811  18.9203060   3.2650068  55.8516932  20.0882506   2.5657755
  53.8358450  30.2503037  19.4148672  53.8148832  29.2961192  19.3419027
  54.1850233  30.5471587  18.5745192  24.9539375  23.1961298  20.8177400
  24.4859648  23.3313203  19.9937510  24.7438192  22.2963428  21.0676789
  48.5499811  49.1754293   0.7652096  48.3908272  48.3119202   1.1463316
  49.4226789  49.1090107   0.3776259  54.1375160  14.1736782  14.6821022
  53.7167358  14.6515965  13.9674199  53.7072277  14.4981289  15.4731905
  33.1267881  17.3888028  28.5508490  32.9213738  18.1940353  28.0758357
  33.7757921  17.6540673  29.2025089  16.7341971  23.6850357  26.9454288
  16.6710877  23.2795048  26.0806775  17.6155150  23.4668159  27.2485638
  47.2416782  36.4435649  16.7235267  47.1570492  36.9570398  17.5269032
  46.3736725  36.0627890  16.5900862  12.4376261   5.9974271  62.2351742
  12.1849704   5.7125950  63.1133938  11.8218219   5.5527115  61.6527271
  21.1778426  57.2808647  70.1932621  21.3547206  57.0216799  69.2889547
  20.6029344  56.5941715  70.5311489  63.2463312  72.6479006  44.2528820
  62.3586559  72.3066854  44.3616915  63.1372070  73.4321928  43.7151003
  64.8214388  17.7729177  60.6800365  64.6946430  17.0461285  60.0701714
  64.1782522  18.4279740  60.4090357  39.6688867  71.7500639   3.2450348
  39.1787291  72.5084734   2.9275665  39.0501261  71.0223007   3.1839511
  23.1450891   9.0306854  37.3857188  23.4700441   9.6198994  36.7049384
  22.2029114   8.9763933  37.2257614  48.6792421  74.0399361  11.3978589
  49.2448854  74.4195938  10.7254493  47.9436255  74.6488333  11.4637959
  43.5823345  51.8030119   7.8730357  43.9414883  52.4756622   7.2944319
  44.3042660  51.5832281   8.4618831  77.5181041  81.5061199  53.6329794
  78.1990514  80.8422902  53.5240221  77.7460514  82.1888682  53.0020046
  74.8174191  31.6079593  66.2030363  74.9716473  32.0548224  65.3707123
  73.9487743  31.2173033  66.1077881  82.5815487   0.6930181  46.1594057
  81.6656113   0.9705596  46.1758137  82.8451157   0.6824219  47.0795393
  85.2519512  46.8183136  59.2946148  84.3556976  46.8726015  59.6262884
  85.3738880  47.6288366  58.8002300  78.7241173  33.6317134   9.6408945
  78.2223558  34.4351912   9.5034635  78.5384369  33.3854151  10.5470359
  23.5451102  30.1548600  24.6952415  23.6418295  29.2026758  24.7101974
  23.4151196  30.3679156  23.7711525   9.9615979  61.2833834  38.3598971
   9.9476171  62.2371292  38.2798505  10.3078651  61.1217403  39.2375064
  35.7376647  40.7526731  29.2385125  36.4351153  41.2637138  28.8278675
  35.6612730  39.9699068  28.6929154  22.5672221  40.9311199  33.6884594
  22.6645350  41.8568802  33.4654546  23.1036997  40.4714966  33.0425739
  35.0154638  23.9988852  62.5172424  34.6385264  23.6038089  63.3034134
  35.7615733  24.5055318  62.8379583  85.8341408  71.4395761  35.4608202
  85.6834984  72.3069572  35.8365750  85.2913094  71.4224434  34.6726108
  12.6018858  73.3556652  12.8392506  12.2867191  72.8884602  13.6129570
  11.8448961  73.3883762  12.2543335  12.5322986  42.4173880  20.6170797
  12.2353911  42.6132917  21.5057302  11.8685770  42.8108406  20.0505996
  24.6936560   3.8539529  53.1791496  24.6343374   3.3152711  53.9681625
  24.2309666   3.3499670  52.5097132   7.3574173  57.9256964  43.2634830
   7.3664480  58.8775396  43.3642244   8.2635146  57.6596880  43.4198761
  25.9549332  65.1599264  16.4507663  25.7039809  66.0774708  16.5573859
  25.5680013  64.9014378  15.6142879  82.7384758  43.0543661  69.9098301
  82.9633904  42.4801350  70.6418848  81.8654442  43.3837652  70.1232719
  68.9514494  51.7051554  12.1050370  68.8560534  52.2681332  11.3367987
  68.4331751  50.9275055  11.8979442   6.5384239  62.6722860  58.6298561
   7.0077723  63.4691334  58.8768005   5.6340247  62.8340435  58.8984251
  28.6733913  27.2586942  52.4004889  29.5027161  27.7243185  52.2925854
  28.1533051  27.8248119  52.9707956  46.7883539  15.8031738  14.6034265
  46.6633606  14.8547077  14.5714617  47.4985743  15.9721565  13.9843440
  66.2954998  37.5413322  13.6874008  65.9001970  38.0582404  14.3893802
  65.5587673  37.2922468  13.1293559  70.4708701  46.2188606   0.4800646
  69.5903236  45.9040300   0.2757399  70.8079892  46.5455519  -0.3541143
  10.6922615  73.2509184  10.9746301  10.1310289  72.4780321  11.0369956
  10.8035588  73.3908510  10.0342774  84.9798584  24.9171448  53.0044651
  84.0277576  25.0097585  53.0385160  85.1237488  23.9893079  52.8183222
  68.4234428  71.8576193  19.6247435  69.3662977  72.0133734  19.6794462
  68.2753181  71.0889053  20.1755381  11.8867469   4.3028072  53.1683922
  11.3655043   4.1768408  52.3755026  11.2433207   4.3271428  53.8766575
  44.2980814  57.4048090  32.4340391  43.6108065  56.7444515  32.5224495
  44.3888521  57.7750683  33.3120489  30.4998207  29.7578096  -0.0200442
  30.5671644  29.6457624   0.9281867  31.4050269  29.7272372  -0.3297226
   3.8117146  58.1281710  52.2351265   2.9763016  57.6609612  52.2295618
   3.9439359  58.3932877  51.3249254  25.2132463  79.3281555  69.7377968
  24.7309303  80.1529980  69.7946072  24.8142433  78.8677502  68.9995193
  69.0671396  40.4385376  57.2422123  69.3127441  40.4057837  58.1667852
  69.5250463  39.6970272  56.8463421  38.8717675  14.3503881  52.7548742
  38.9854431  15.2319956  53.1099510  38.1794715  14.4432044  52.1003962
  73.6148119  56.9983101  17.5045919  72.9772234  57.6342773  17.8290343
  73.8662481  56.4948750  18.2789075  57.8596163  33.2472587   3.3057630
  58.5512638  33.9088893   3.2958466  57.0579004  33.7360573   3.1198683
  55.3061581  42.9905987   6.2235212  55.6230736  42.2532272   6.7451322
  55.1048756  42.6101923   5.3685308  47.4583006  59.7472048  45.5821705
  47.0714569  59.3330336  44.8107815  48.0328846  60.4254389  45.2270794
  78.0885649  19.4565511  28.8476276  77.3480749  20.0625992  28.8228464
  78.3749819  19.4655573  29.7609258  78.2229805  24.8055959   5.1317680
  77.4466562  25.3067183   5.3816271  77.9905844  23.8957071   5.3170371
  38.2217145  80.2391243   0.7260329  37.6489305  80.9066677   0.3484940
  39.0552998  80.6889534   0.8639618  50.3102827  19.8795104  16.6772234
  50.1816225  20.7028866  17.1481073  50.4437590  19.2281377  17.3657942
  71.1987162  51.5329695   6.2863016  71.6182661  51.0267591   6.9819695
  71.8971825  52.0879364   5.9393346  33.2130623  68.1113052   2.8864601
  33.1854558  67.2321606   3.2640570  32.7894282  68.0188608   2.0331010
  58.2401991  38.8668060  24.3320584  59.0124273  38.6428785  23.8126802
  57.5512266  38.2933760  23.9963150  69.8597431  45.4113483  15.4375589
  69.6223974  46.2332821  15.0082314  69.0349007  44.9307489  15.5074668
  65.1461315  11.0970235  65.1164722  66.0778475  10.8806884  65.0798893
  64.8711395  11.1273992  64.2001295  57.8482389  81.1566734  70.0775099
  58.3358288  80.8007336  70.8203411  56.9316864  80.9706402  70.2813530
   1.9595906  74.8952723  65.8547878   2.5909269  74.7976732  65.1419640
   1.5802696  74.0227509  65.9599161  56.0725307  53.4896994  24.9351859
  56.9653225  53.1473494  24.8909712  55.9927416  53.8365269  25.8237672
  11.7382753  55.9258556  27.7660632  11.3602078  56.1691713  26.9210219
  11.0076261  55.9858322  28.3815217   9.8431557  66.1940956   1.2206430
   9.2264140  65.4629993   1.1837752   9.6543932  66.7065620   0.4345252
  47.2476292  66.2051535  23.5131168  46.5748739  66.8334818  23.2507420
  47.9088497  66.2601614  22.8231955   9.9280649  67.4922752  15.7479382
   9.9328685  67.9561377  16.5852213   9.1569108  66.9269133  15.7917607
  69.1708183  55.2240086  29.0797305  68.8945436  54.3567085  28.7836051
  68.4139156  55.7860327  28.9140153  10.4536867  15.0266683  17.1895611
  10.3397059  14.2644274  17.7572131  11.0174692  14.7156692  16.4812803
  55.4844952  38.2356620  21.2005234  55.5570173  38.9077854  20.5228662
  55.5676556  37.4080348  20.7268667  80.8937550   1.9079918  67.2871542
  81.7885780   1.9939227  66.9583130  80.3676891   1.7325091  66.5069675
   1.0663621  19.5241773  47.5781965   1.2873784  19.2331588  48.4628963
   1.7278253  19.1160059  47.0195436  21.2740040  77.8713846  19.1649318
  21.5446949  77.7281046  20.0718117  21.0360599  78.7978601  19.1295278
  38.3829641  23.9471126  62.6684809  39.2681026  24.1458774  62.9738569
  38.5120702  23.5190916  61.8220997  56.6225719  77.5076151  17.2955453
  57.2464466  77.2923994  17.9888666  55.9048462  77.9505682  17.7482033
  83.8631630  53.2248640  16.2804806  83.4807205  53.3000898  17.1547306
  83.1996918  52.7632093  15.7677305   2.8513053  36.7057848  15.4144549
   3.1541887  36.2035012  14.6580136   3.2306188  36.2548923  16.1688089
  40.5577183  25.3326774  45.6928682  40.9515142  24.8484564  46.4186001
  40.5628443  24.7147322  44.9618769  27.9602742  73.1179762   9.8113430
  28.4952021  73.7928152  10.2292883  27.2350836  72.9762459  10.4198205
  58.6693382  58.0256987  23.7144947  59.3805313  57.9680443  23.0764437
  59.0225410  57.6165342  24.5044732  30.6232333  67.5933504  20.6721234
  30.5430579  66.6398668  20.6462455  30.1022387  67.8977728  19.9290740
  32.4072337  73.0942202   1.2845156  32.8771091  72.2612906   1.2435442
  31.7443442  72.9621744   1.9622865  58.6425161  23.9452362  22.9362869
  58.7754393  24.4792199  22.1530747  58.7360668  24.5599747  23.6640072
  27.5039697  18.4673107  69.1129208  28.3495617  18.2975912  69.5281363
  27.5940132  19.3421125  68.7349749  67.4960136  54.9648046  10.0905907
  67.7853966  54.1236258   9.7371620  68.1433296  55.1775885  10.7628489
  74.2612934  56.4843988   0.6460481  74.0940714  56.5955162   1.5819550
  75.1880503  56.6996813   0.5411135  51.0366201  16.7918658  16.7694068
  51.7818832  16.2385905  17.0032799  50.9649658  17.4152589  17.4922335
  80.3376579  24.7411036  16.0321128  80.0914860  23.8773251  16.3630450
  80.1163673  25.3421235  16.7434764  48.5433865   2.5248188  30.8205438
  48.7272882   2.9463819  31.6600037  48.1534863   3.2162511  30.2856302
   7.2012120  47.4951744   2.0059499   6.5574723  48.0499411   2.4464743
   7.9068166  47.3934698   2.6447067  73.8205957  13.0879283  59.7151375
  74.4880199  13.6683977  59.3492985  73.0468369  13.6431754  59.8111820
  62.2087288  15.4559076  49.8574686  62.8144217  15.3906047  50.5957747
  62.6575136  15.0097370  49.1393042  39.4542265  68.8019943  62.1237516
  40.3670979  68.9885283  61.9044399  39.3784356  67.8510714  62.0448303
  82.5716400  72.3870897  46.0003328  83.3455563  72.9115915  46.2057352
  81.9039154  73.0294037  45.7598925  72.5437975   1.4740461   5.3798693
  71.9115591   2.0735301   4.9834758  73.0793667   2.0304088   5.9454268
  56.1663437  60.2443886  30.2958226  55.7344103  59.6178055  29.7152567
  57.1009207  60.1173067  30.1325607  43.1077337  70.1514339  21.5265918
  42.4695778  70.5601835  22.1113253  42.9549980  69.2116165  21.6247892
  14.9584472  31.7868567  52.4904728  14.1874623  32.1291518  52.0380926
  15.6918013  32.0126033  51.9182301  57.4084187  31.9407797   8.1002557
  57.9254150  31.2438726   8.5043216  57.9928303  32.3240662   7.4461997
  40.7512569  51.9597912  28.9295125  40.1113081  52.3174620  28.3140659
  40.6364012  52.4808025  29.7242379   9.4943660   6.2435019  51.8406153
  10.2575469   6.4630049  51.3061953   9.4795698   5.2865309  51.8554163
  68.7655640  60.8351421  10.6004357  67.8638506  60.9594584  10.3043008
  68.9421463  61.5945578  11.1557186  36.0037661  17.2698569  56.5366316
  36.4379621  17.5314105  57.3485994  35.0776958  17.4581695  56.6888285
  34.8023582  12.9148102  51.2580967  33.9430189  13.1079006  51.6329050
  34.6104717  12.5524652  50.3931570  65.7067347  14.5477080  18.0318093
  65.1103163  14.1147327  18.6425900  66.5249825  14.0568125  18.1074655
  71.0741997  69.4491339  13.6890340  70.8067560  70.1455212  14.2888236
  70.6387234  69.6632910  12.8639722  53.4991074  69.1023493  60.5070305
  53.4597397  68.5936737  59.6971369  54.4161606  69.3669510  60.5793428
  78.8970327   7.7292782  27.0878553  79.0300703   7.7864975  28.0340362
  79.7792101   7.7724695  26.7189026  46.9814777  14.3446648   9.9665391
  47.3678255  14.5316446  10.8221126  46.7058849  15.1997256   9.6361595
  65.4570389  55.4885483  16.7429924  65.7883692  56.0863495  16.0728550
  66.2372828  55.2101326  17.2225070  56.1178637  50.8638239   8.8525301
  55.3149128  51.3507938   9.0378994  56.0638618  50.6593513   7.9189855
   0.8670216  10.7158470  25.2152514   1.4195329  10.6873167  25.9963727
   1.0438728   9.8890811  24.7664595  44.1471100  54.8402071  17.5904763
  43.4253645  54.5014811  18.1201768  44.0461922  55.7913160  17.6283693
  65.2952147  47.5398922   4.5719236  64.7861195  46.8476772   4.1501480
  66.1786509  47.1782732   4.6426427  77.2939682  62.7467155  44.7601461
  76.9909286  61.8394804  44.7238350  76.6801310  63.2267046  44.2042303
  44.8317814  53.4934235   6.1202401  44.3698502  54.2431259   5.7450175
  45.5021620  53.8819599   6.6822571  42.5176764   7.5246722  54.9321127
  42.3649740   6.8759513  55.6191921  41.6538954   7.8997803  54.7606325
  78.9388371  54.6370220  31.2785029  79.0727854  55.5028248  30.8929157
  78.0550814  54.6719694  31.6445422  46.7952251  18.3581972  58.0602026
  47.6294851  18.6395383  58.4358263  47.0264435  17.6336265  57.4790239
   2.7825564  42.7713060  36.2266350   1.9267049  42.6681423  35.8105731
   3.1971282  43.4884930  35.7470489  75.6990719  66.5578747  51.3796329
  75.4762650  65.9280157  52.0651007  76.0493374  66.0228395  50.6673956
  43.8900471  65.0666285  20.7252121  44.7068310  64.7287178  20.3579092
  43.5842037  64.3719292  21.3083839  32.6357889  19.5700264   2.5646940
  32.9242420  19.8211408   1.6872154  32.6437116  18.6129117   2.5546661
  14.1573417  59.7815466  29.7395277  14.3433106  60.6323004  29.3422103
  14.9905705  59.5095968  30.1242399   3.8386455  31.2681341  48.5810471
   4.4645572  31.9920826  48.6001110   4.1766274  30.6423688  49.2216873
  54.9794197  54.7918940   7.8729361  54.6053505  54.9560738   7.0072865
  55.8572578  55.1711226   7.8303707  16.7127311  30.8004808  68.0818319
  16.6265881  31.7537498  68.0724192  15.8843184  30.4815841  67.7236843
  47.5335026  44.5986986   9.9462992  46.9512463  44.7710228  10.6862402
  47.8772974  45.4592609   9.7065777  28.7325597  39.0559578  67.4454641
  27.9432416  38.8953781  67.9625940  28.7744951  40.0085831  67.3619461
  39.3334150  65.2963543  16.7745733  38.8848948  65.6948662  16.0287511
  39.7203302  66.0353041  17.2441256  70.9073353   2.9036850  30.5086064
  70.1401186   2.4243522  30.1957917  70.7120705   3.0959946  31.4257336
  54.6177053  41.7809439   2.9491833  53.8449526  41.3200855   3.2758170
  55.2206612  41.0840082   2.6904374  27.5504255  29.3630433  40.8760929
  27.1834064  29.1153908  41.7247343  27.8071308  28.5328555  40.4746962
  49.6528578  71.5757895   3.7727293  50.4512262  71.1510468   4.0864658
  48.9844894  71.3323689   4.4132447  12.1593809  43.3629894  62.9360151
  11.3835192  43.1523800  63.4555483  12.2092021  42.6627731  62.2852802
  38.5779953  25.0692677  57.8102589  38.2014275  24.8795962  58.6695910
  38.7049079  24.2094088  57.4092960  81.2768936  64.6207190  39.2121339
  81.5574932  63.9324045  38.6090374  81.5776634  64.3238688  40.0710011
  28.5279942  71.1809540   7.9115570  29.4684100  71.2119246   8.0873072
  28.1542802  71.8461466   8.4895575  33.8577366  34.2564988  54.6325207
  33.3674574  33.8089204  53.9429331  34.7269821  33.8565397  54.6065664
  43.2745266  47.4887180   1.3199408  43.7397671  47.2830153   0.5090959
  43.5381079  46.7988682   1.9289266  55.2093410  24.1119170  10.3887546
  54.9684048  23.3739471   9.8287725  56.1318827  23.9636993  10.5965638
  63.2465172  61.6793823  14.1883576  63.2182693  61.6588926  15.1449215
  62.9343891  60.8149147  13.9209521  13.6968493  42.1209240  11.1510658
  14.2530537  42.8571939  10.8965540  13.4432435  42.3131847  12.0538127
  70.5404806   7.5845283  12.2026658  70.5285501   8.1234735  11.4117002
  70.8798075   6.7383963  11.9108617  17.2021508   1.1486504  64.2790508
  16.4267528   0.6261858  64.4840384  17.7563238   0.5627174  63.7634850
  48.5958672   8.2313132  65.5063868  47.9910040   8.2684022  64.7654438
  48.5203934   9.0910149  65.9204483  65.4968739   2.4182002   4.3176568
  64.5801544   2.3867601   4.0440449  65.7504511   3.3337694   4.2007634
  70.6726408  73.6154747  55.8630991  70.9632158  73.3137369  55.0024271
  71.1362839  74.4422531  55.9961510   5.0778311  73.9262581   4.6976516
   4.7242862  73.9559793   5.5866706   4.3051779  73.9215899   4.1326588
   8.5609776  16.1652315  64.6721506   9.1517764  15.5196810  65.0600338
   7.6850480  15.8629298  64.9121332  64.2078304  51.4169884   7.2694576
  63.9713764  50.5078793   7.0854890  63.4253311  51.7906713   7.6747847
  61.2114429  52.4078751  21.8551874  61.5200138  52.5662518  20.9630346
  61.0660601  53.2820320  22.2170591  29.9150419  54.6168995  12.3433745
  30.0046659  54.0024471  11.6149187  28.9785600  54.8118544  12.3784316
  71.4348888  52.2288752   9.9312431  71.7882013  51.3428879   9.8510253
  71.2272644  52.3206472  10.8611357  32.1881628  70.9969902  10.5163789
  32.1525645  71.5763140  11.2775266  32.0153260  70.1248264  10.8709121
  69.5810556  61.1458778  18.7590134  70.2857065  60.8123207  19.3143809
  69.4696569  62.0559025  19.0341127  84.4952202  77.1703005  59.8242188
  85.2547550  77.5899982  60.2281809  83.7576294  77.7337599  60.0581074
  10.4383612  68.8034582  58.9343357  11.3757288  68.6098289  58.9435005
  10.0411534  68.0443621  58.5074520  60.3631163  63.9019108  42.3967695
  59.7017193  64.5359135  42.6739311  60.6632137  64.2248106  41.5471172
  18.8473666  58.8422489  61.7505789  19.0716648  59.5094538  62.3992348
  18.5277247  59.3385983  60.9971189  59.7780323  52.7973175  16.5078580
  59.1019917  52.6362610  15.8496284  60.5944967  52.5373173  16.0812199
  29.3486619  58.1554222  11.8711650  29.9345946  58.6813450  12.4155188
  29.9280286  57.5424051  11.4186406  76.4758348  67.8187037  17.1916878
  75.6593132  67.3594379  17.3881567  76.1966753  68.6696291  16.8537140
  51.8089771  28.1854248   2.6548344  51.4284372  27.5633907   3.2749102
  52.6101208  28.4892511   3.0815512  47.7259064  27.8402853  19.2315626
  47.7080059  28.5463667  18.5855305  48.4143782  28.0950665  19.8458302
  35.3476095  66.1843920   4.7111145  36.0887265  66.7490339   4.4916713
  35.4150057  66.0577059   5.6574965  44.4770288  62.1233082   5.5015391
  44.3562984  63.0500984   5.2948642  43.6791420  61.7010260   5.1832813
  50.0053453  64.3088484  22.9295206  49.8759937  63.3834696  22.7217436
  50.9022379  64.3569279  23.2604337  46.8153811  17.9994369  61.3793087
  46.9303370  17.0504951  61.3290644  47.5084686  18.3544672  60.8227015
  52.8703117  64.7864628   4.4161400  53.4694004  64.3809319   3.7893420
  53.0799007  65.7196712   4.3784535  69.7480392  63.2599974  62.1228266
  70.3078938  63.2158756  62.8979683  68.9574671  62.7806807  62.3707819
  44.2872572  47.2132444   9.5145488  44.1681242  47.4932146  10.4221034
  44.3069029  46.2573004   9.5594108   3.9862061   6.8311036   8.7917286
   3.3084944   6.1559778   8.7579060   4.8097539   6.3470131   8.7312514
  42.9023266  22.6266932  45.5135775  42.9868793  21.8750739  46.1002207
  43.2861233  22.3306537  44.6881723  58.5017681  35.2969694  18.9631033
  58.2487345  34.4962859  19.4225752  58.8292742  34.9938560  18.1162882
  45.5418777  65.6991816   1.6245706  44.6481848  65.4261541   1.8319201
  45.5683422  66.6277075   1.8555820  34.2986870  29.8300147  62.9574251
  34.5866728  30.7021689  62.6878977  34.3513846  29.8450708  63.9130545
   1.7366581  48.5012770  58.2444715   2.6064393  48.1078339  58.1743479
   1.1350773  47.7972269  58.0022955  63.1297874  30.9052348   5.8777863
  63.2231617  29.9540138   5.9296602  63.9916754  31.2440586   6.1198103
  33.5710406  25.6594181   1.4351669  32.6505446  25.4129839   1.3446635
  33.7519956  25.5701852   2.3708618  15.9761608  18.3597922   6.1458683
  15.9659374  17.6702547   6.8096948  16.9005311  18.5911453   6.0550547
   6.1101550  63.2019854  36.8974257   6.2512487  62.5258303  36.2347484
   5.1809216  63.1325626  37.1163702  19.7024000  17.9165065  62.9489470
  18.7634778  17.7586854  62.8502083  19.8781669  17.7447069  63.8740540
  22.2423625  34.7252250  18.5915220  22.0725751  34.3173957  17.7423584
  21.9832468  35.6392050  18.4743559  71.3987637  44.5415497  11.2456453
  71.2429905  43.7826490  10.6834745  71.3602161  44.1920662  12.1359289
  53.6182213  48.3376503   3.1820646  53.5550833  49.1475153   3.6883894
  53.8550425  48.6244440   2.3000798  61.8305302   4.6956125   7.2110176
  62.3656797   5.1100373   6.5341860  62.4582243   4.4285285   7.8825057
   4.7622028  16.2342131  12.5085783   5.3819418  16.7155445  13.0567360
   3.9023262  16.5538967  12.7817941  17.7915621  11.0390723  62.7730799
  18.0832636  11.8658376  62.3888922  18.0760384  11.0855544  63.6858463
  66.4882803  30.6821823   9.8546302  65.7173777  30.3249192   9.4138253
  66.1370420  31.1380386  10.6195223  78.2584000  66.4446640  37.4707031
  77.6329517  67.1309090  37.7033257  78.8339615  66.8541288  36.8247151
  34.9467802  80.5645466  31.6968250  34.0628743  80.6496048  31.3394642
  35.4372621  80.1044369  31.0156846  85.7509136  32.2535849  61.6037846
  85.9641647  32.1198082  62.5272846  85.0417614  31.6347075  61.4296436
  57.3065281  45.7649326  12.2125018  57.0277214  45.9342861  11.3126016
  57.2410107  44.8148441  12.3087621   4.2436701  21.8437457  57.1572828
   3.9193273  22.4652648  56.5055561   4.9779928  22.2948599  57.5738144
  44.4555807  35.6893229  11.0846114  45.3189135  35.6439686  10.6737244
  43.9851284  36.3534474  10.5807805  55.1426792  64.3735456  13.7314916
  55.2001667  64.3571091  14.6868229  56.0412216  64.2288971  13.4349525
  53.2405138   5.7578903  62.7290010  53.8310957   5.3720385  63.3759642
  53.2055330   6.6861010  62.9601574  64.6819544  17.0848489  51.2745667
  65.4471874  17.4786401  50.8555460  64.6583557  17.4772072  52.1473408
  60.8998156  43.6986589   1.3052373  60.4966736  43.0467987   1.8786399
  61.7080688  43.2845068   1.0028496  61.2273884  75.2666521  50.7319832
  61.7033291  75.0063276  49.9433470  60.3198719  75.0174093  50.5572748
   6.1810261  53.1890678   9.9285561   5.3705168  53.5490417  10.2887332
   6.7287391  53.0186749  10.6948519   9.9125916  16.3397574  67.2717476
   8.9945412  16.6106951  67.2744465   9.9178106  15.5065739  67.7429295
  18.1867337  35.0222349  26.9446111  18.0792654  34.9613261  27.8938079
  17.7854979  35.8593988  26.7113733  52.9839182  57.5087643  29.7107077
  53.8083363  57.0245743  29.6645498  53.1705761  58.2444811  30.2938986
  27.8452492  62.8976965  24.1804695  27.8399324  63.8406563  24.0160775
  28.6944175  62.6021194  23.8521695  45.6989431   7.9749191   2.8945574
  46.5838051   8.0614209   2.5399178  45.2720928   7.3386621   2.3207912
  53.9948273  46.8737936  60.5699492  53.7910700  46.6422844  61.4761066
  54.8074150  47.3763371  60.6280518  53.7743902  19.2597914  65.8621740
  54.1381168  18.8189113  65.0943470  54.2970467  20.0568008  65.9507084
  67.8094339  20.6441164  -0.1392020  67.0624828  21.1231637   0.2196941
  67.6650476  19.7374690   0.1316758  64.5190716  80.7045555  36.7655087
  65.3258753  81.0237980  37.1697140  63.8222075  81.0167789  37.3426747
  67.4988794  47.5528193  64.7528648  67.0354700  47.2251606  65.5236530
  68.4256649  47.4708509  64.9777794  29.7592044  39.7986293   2.6953071
  29.6328592  39.5215535   3.6027747  30.2029371  39.0597773   2.2788560
  58.5474873  70.1296473  32.8222466  59.4357681  69.7731924  32.8108644
  58.3767605  70.3179026  33.7450910  68.7564611  53.9804411   4.6007586
  69.4425821  54.2833757   4.0060353  68.7488365  53.0293560   4.4929999
   7.1274817  31.8763041  60.6366158   6.3125390  32.2886229  60.9231281
   7.7253050  31.9882560  61.3757372  76.0035181  65.7020617  12.8018975
  75.9489012  66.2591839  12.0254529  75.1171827  65.3579998  12.9126394
  34.6997643  10.8031023  53.6164951  35.0250459   9.9773914  53.2578516
  34.4714403  11.3249421  52.8472233  81.6323471  55.3694677   7.3429865
  82.0553780  54.8587227   6.6527563  82.3105049  55.9747791   7.6428640
  83.0486870  81.2933826  57.6642275  83.7900734  81.4193058  58.2564402
  82.2811985  81.3015652  58.2361841  81.2321949  54.7709656  61.0298777
  80.3578091  54.4394350  61.2342596  81.5477467  55.1390505  61.8552113
  21.4528346  45.1298904  25.4465294  21.0051179  45.9058237  25.1093197
  20.9195328  44.8500252  26.1905003  54.3028402  29.7360826  25.5757260
  53.5636663  29.4843316  25.0221229  53.9379740  30.3775883  26.1852956
   2.4629387   8.2227910  11.1901677   2.5382206   7.3989880  10.7085943
   2.4952608   8.8993937  10.5138576  65.6670904   4.8728064  15.9387255
  65.5288839   4.5075408  16.8126321  66.6051865   5.0596738  15.9028471
  62.4261332  70.5305290   8.8691556  61.8139172  70.0234222   8.3359826
  62.9197788  69.8723173   9.3583453  52.8990746   1.0196387  59.9001884
  53.0307341   1.4046696  59.0337896  53.7374020   1.1407533  60.3460217
  55.4763222   2.9316211  41.5935087  55.6762171   3.7955490  41.2330914
  54.5372581   2.9599884  41.7767811  73.9768314  31.0879230  39.1348910
  74.4939995  31.8870997  39.2353392  74.2736912  30.5196166  39.8456192
   0.8514819  59.1120195  47.4025106   1.5018776  58.7114525  46.8256521
   0.1743843  59.4384289  46.8098640  70.1074648  41.3993168  14.6993363
  69.5039845  42.1326113  14.5796704  70.9637499  41.8105841  14.8170877
  74.9999332  57.3844862  23.0170059  75.3404617  58.0068207  23.6596346
  74.0607882  57.3436356  23.1974649  25.0139499  53.4100866  44.1223621
  25.0339484  53.3735752  43.1660652  25.0038266  52.4931574  44.3968964
  72.7153683  39.9786758  20.5240107  71.9171906  39.6480489  20.1118970
  73.1345987  40.5068111  19.8446393  61.7817640  54.7014570  14.4230318
  62.6585531  55.0420523  14.6004117  61.8703365  53.7527514  14.5143700
  20.8877110  49.7585154  44.7045755  21.7445612  49.3668652  44.5353174
  21.0468721  50.3882360  45.4076815  32.1581745   7.0247370  41.3789368
  31.5075755   7.6121849  41.7634583  31.6457391   6.4128000  40.8505678
   2.9818580  68.2746601  22.8681564   2.2324690  67.6803589  22.9062605
   2.6006055  69.1473484  22.9645705  53.6253929  47.0403671   0.3827270
  52.9958391  47.0759106   1.1028840  54.2547464  47.7339840   0.5803267
  56.6333866  67.6910257   8.2092035  56.6704369  67.6291656   9.1636837
  56.3501787  66.8223953   7.9237038  37.8872585  76.8398952  25.1239085
  37.0206404  76.4952040  24.9085212  38.4198451  76.6483641  24.3519640
  45.0926304  60.4133034   7.5398850  44.7847700  60.8840799   6.7654032
  45.5363607  61.0796595   8.0645758  26.4549088  10.2962303  55.8150911
  26.1390042   9.4162071  55.6101656  25.8419538  10.6234753  56.4734459
  55.9457159  62.8940201  30.5849552  56.6118002  63.0382872  31.2570810
  55.9853363  61.9544840  30.4062581  12.1820855  22.6547599  58.5792446
  13.1320548  22.5374460  58.5846376  11.9258428  22.4923062  57.6713991
  71.4709425  58.8868570  18.2970202  71.3896656  58.8600492  19.2503858
  70.5843163  58.7216806  17.9763150  37.9460454  77.5460434  56.0679674
  38.2095814  77.6627636  56.9807386  37.1889639  76.9618511  56.1100817
  73.8757229  55.5749273  25.5695415  72.9976416  55.5505705  25.1892638
  74.4376659  55.1851416  24.8998237  31.2828898  30.2450633   2.4888419
  31.5229368  29.5404196   3.0905765  32.0069456  30.2834439   1.8639421
  48.9811897  36.7274094  14.6522081  48.4652281  36.7914009  15.4559016
  48.4197712  36.2455320  14.0448916  58.8972139   4.9994546  45.1170683
  59.4816351   4.7291654  45.8253288  58.8760614   5.9546441  45.1753521
  84.8826981  22.4099541  50.8383322  84.0867710  22.0334697  51.2138176
  85.5817032  21.8177223  51.1156321  70.7068348  45.0453520  34.0584517
  70.9236860  44.5052338  33.2985306  71.5492678  45.3880310  34.3569732
  46.8621302  11.9411278  17.6758623  47.6846123  11.5415204  17.9588163
  46.2090206  11.6052914  18.2897770  16.1333215  65.5929613  60.1051092
  15.1972711  65.4680347  60.2614260  16.4619112  64.7163534  59.9055481
   7.4421346   6.5862018  64.6564150   7.2061998   5.7436669  64.2682123
   7.3163277   7.2192359  63.9495420  54.2603970  39.8587751  15.0920582
  54.5222616  40.2064848  14.2395568  53.3932543  40.2331829  15.2473342
   4.1885856  71.2426805  58.6240673   3.7415662  71.2592554  57.7778244
   3.4823924  71.2848854  59.2688465  38.2221055  47.6804543  16.3136244
  37.5116706  47.1663904  15.9298933  38.6378932  48.1098890  15.5660009
   7.0203501  59.7322989  54.6194506   6.4269060  59.6680450  53.8711643
   7.5698477  58.9510202  54.5571232  38.1099916  40.6058025  10.9906042
  38.3824277  40.7982016  11.8878186  37.1614647  40.4906607  11.0477877
  18.1521153  80.3624916  47.4362946  18.1580269  79.7603416  48.1803465
  18.6122620  81.1396122  47.7534246  55.8357763  32.8352857  10.2589464
  56.6167736  32.5975180   9.7592044  55.2335119  32.1035290  10.1246405
  18.1210136   5.6925780  35.4459190  17.8328538   4.9247336  34.9523473
  17.3821020   5.9009862  36.0175896  46.6402483  56.4488697  15.9670711
  45.7203913  56.1981583  15.8820069  46.9315672  56.0212374  16.7723644
  42.5885725  31.3754511  52.2893620  42.9650211  32.2468781  52.4123812
  41.8602467  31.5125132  51.6835690  29.9970055  35.2701020   7.6613039
  29.7340178  36.1137223   7.2933722  29.2068005  34.7318840   7.6151651
   9.7952175   5.2880877   3.9533967   9.4223839   5.8028388   4.6691191
  10.5056810   4.7919509   4.3599945  63.0095100  41.5691996  21.4858365
  63.0570030  41.7020941  22.4325752  62.9800081  40.6184816  21.3786101
  82.8523791  33.7066506  -0.3205402  83.4694135  34.3946789  -0.0713117
  82.7910983  33.1477736   0.4541437  22.1115160  76.6294575   4.1959032
  22.4942279  76.0156441   3.5690123  21.5087008  76.0970354   4.7149163
   3.9650172  81.4934539  55.8977890   3.9243621  80.6449437  55.4566431
   3.9614290  82.1337391  55.1862764   7.5837934   1.4054459  55.4090595
   8.4495306   1.1875476  55.7543898   7.3009270   0.6123374  54.9538708
  29.8097730   2.4349415   5.9105068  29.5768547   1.5488264   6.1876023
  29.2441010   2.6069596   5.1577413  81.4479065   9.3866408  16.3812006
  81.8401814   9.4403756  15.5097270  80.9249687   8.5852081  16.3594687
  17.5412774  35.2039862  56.2201691  16.7157876  35.2830577  55.7421017
  17.6144648  34.2705202  56.4189577  26.5401983  39.7411609   0.0448475
  25.6885934  39.9432325  -0.3426656  26.3645267  39.0159225   0.6443491
  73.7915850  35.7527304   7.1719503  72.8865480  36.0421634   7.2875702
  73.7498760  35.1147985   6.4595354  59.8749542  31.9223738   1.4537054
  58.9903879  31.8042016   1.7998387  60.4350424  31.4317083   2.0551881
  47.3854256  58.2687759  10.2449346  46.6802740  58.2919121  10.8918130
  46.9584036  58.4893274   9.4171423  45.2612686  14.8992479  25.1219511
  45.2909851  14.1466570  25.7126784  45.3897762  14.5248687  24.2504263
  77.3073959   7.3474622  67.8090334  76.5325737   7.5107652  68.3468151
  78.0407715   7.4069309  68.4212923  33.6658525   9.7454762  12.4299324
  33.1017876  10.4242897  12.0594299  34.0965962  10.1704764  13.1715977
   7.6699406  72.9204893  69.9920654   8.2009822  73.6469698  69.6657944
   7.9953259  72.7652931  70.8787823  74.1539288  64.1279840   9.9180162
  74.1337109  63.1789398   9.7949803  75.0508356  64.3790722   9.6972299
  60.7231951  66.6429758  19.5958257  59.8986292  66.3791037  20.0041080
  60.8730650  65.9882545  18.9138353  48.7417841  66.6178322  48.2069159
  49.2728806  65.8471155  48.4073257  48.4007645  66.9009161  49.0553284
  74.5209503  72.0189905  48.2982969  75.0881338  71.4180470  48.7814093
  73.6666870  71.5872622  48.2896376  26.1049199   1.9458023  68.8983631
  25.6844020   2.7735114  69.1313744  27.0415735   2.1172003  68.9960051
  38.1240225  17.2884166  52.8697395  38.2833457  18.2224524  53.0054712
  37.8445339  16.9661188  53.7266207  58.8271904  28.0766463  25.3681183
  59.4239569  28.1517696  26.1127377  58.8225126  28.9497805  24.9758887
  83.5765171  42.4006081   7.3635370  83.5546398  42.8754902   8.1943446
  83.4820938  43.0805445   6.6964549  81.0840130   9.7074044  67.7494049
  80.3409290   9.8973316  68.3221149  80.8300877   8.9104873  67.2839165
   1.2498859  61.3084507  62.0344973   0.8807688  61.8200350  61.3145876
   1.2152299  60.4026365  61.7270374  71.3433313  42.3884296   9.6022308
  71.2350178  42.8400803   8.7652665  72.1811008  41.9324827   9.5216870
  67.1891260  59.0021038   6.9287163  66.4446688  58.4217644   6.7699087
  67.2612286  59.0437126   7.8822893  47.2200918  70.4952145  33.4237027
  46.9449663  70.7071352  34.3156815  46.5461111  69.8970699  33.1008983
  75.6478453  62.1950197  52.0375776  75.9192705  61.6985512  51.2655163
  74.7501326  62.4656200  51.8449211  14.0464973  13.9066792  59.3862820
  13.8278091  14.1122580  60.2952099  14.9999368  13.8220012  59.3826008
  66.8390369  59.4487000  26.5671849  66.0956144  58.8508224  26.6452646
  66.8282127  59.9519444  27.3813462  86.9110394  23.1992173  30.3702188
  86.1686707  23.0153942  30.9458303  86.5207863  23.3061194  29.5027494
   6.9392490  11.3369131  47.7661610   6.5082026  10.8510864  47.0630217
   7.5637001  10.7147586  48.1392765  81.1060524  65.9601784  33.7838078
  80.7536125  65.3524828  33.1336379  81.5171051  66.6526508  33.2663655
  39.4516635   3.6555853  70.5156422  38.8823652   3.7698746  69.7546768
  39.9081779   2.8304353  70.3514624   0.9638764  19.7966576  10.5764711
   1.5302922  19.5198429  11.2967336   1.0677046  20.7475853  10.5419838
  14.7483528  79.3285894  67.2615051  14.4047523  78.9056253  66.4745665
  13.9947283  79.3909931  67.8483534  59.3590879  61.0233116  10.6869590
  59.9506426  61.7522097  10.4998779  59.8803663  60.4223490  11.2192655
   1.2305415  58.3236599  69.3104315   0.7964353  58.3411646  70.1633549
   0.5694124  57.9752731  68.7122965  51.5296364  43.2535982  13.3174431
  51.8383121  43.2569456  12.4113858  50.5881357  43.4126759  13.2503116
  37.2262669  35.3675246  17.1993554  37.5335693  34.5245743  17.5328684
  37.8172231  35.5677366  16.4734638  14.9391985  48.0083942   9.8059255
  15.6848526  47.4899387   9.5035464  14.2174184  47.3818922   9.8584414
  23.1585097  74.9401474  65.2807379  22.7610350  75.2977943  64.4867992
  24.0064669  75.3798294  65.3430462   5.3036171  36.5928411   4.1223153
   5.5405420  37.5029063   3.9437634   5.6340963  36.1066771   3.3668953
  17.3990190  43.1975698  30.2723694  17.5256658  44.1418028  30.1795387
  16.8700671  43.1036043  31.0645890  61.7049742  44.7409678  18.7457657
  60.9403181  44.9612331  18.2137704  61.6448593  45.3223181  19.5038211
  16.1889434  68.7202549  63.4373379  15.6702781  67.9202986  63.5227442
  16.1483335  69.1256475  64.3035030  79.8577166  18.7232780   6.4604408
  79.1053677  18.5227633   5.9036720  79.4747972  18.9509368   7.3076564
  86.5530872   4.7741416  59.9279881  86.8437576   4.8909771  60.8324718
  85.6725788   5.1490837  59.9090576  45.3798389  42.9156303   6.2340635
  45.5733681  43.7374306   5.7830381  45.1823997  42.2971296   5.5307078
  36.1107731  18.4865022  35.7763839  35.1578641  18.5343623  35.8532548
  36.3363290  17.6246917  36.1265802  79.0069532  31.0348296   8.2181352
  78.7295389  31.3160634   7.3462516  78.6810350  31.7172575   8.8049072
  60.3532982  62.8189898  20.2743530  59.8489189  63.0852747  21.0430670
  60.4339743  61.8688822  20.3581691  26.9755793  62.0932007   8.2312799
  26.1454368  62.5202847   8.4426898  27.4698591  62.1114922   9.0507823
  13.4908009  59.9463177  54.8554087  12.9247129  59.4717693  55.4641628
  13.8916731  59.2626476  54.3186331  52.4674082  21.9699144  68.1247663
  51.8240547  22.2255445  67.4637222  53.2492781  22.4772787  67.9068327
  54.2779922   5.8963966  66.0802794  53.5335064   6.4979064  66.0929251
  53.9964581   5.1555198  66.6170025  79.7638130  40.6772518  18.7021482
  78.8767242  41.0198164  18.8114834  80.3033257  41.4533377  18.5509765
   6.8995637  34.0546489  20.8695126   7.3576456  34.3039632  21.6721559
   6.2314248  33.4330130  21.1582875  81.2937164  78.9440918  37.9443049
  81.5920353  79.3768215  37.1443200  81.7779446  79.3785286  38.6464596
  40.5677462   6.5499932  37.7497220  41.3960934   6.9979233  37.9212618
  40.8192158   5.7496297  37.2888374  73.0260515  10.5365205   2.5354034
  73.7422371   9.9134070   2.6580361  72.4328232  10.1020122   1.9226083
  10.6363988  63.5520744  36.5448785   9.7400939  63.4759998  36.2176442
  10.8597696  64.4743299  36.4192486  83.6161804  67.9886484  37.2449064
  83.5332108  67.8644276  36.2994337  82.7689457  68.3426809  37.5152254
  21.5183640  74.4339705  32.7877522  21.7361641  74.1973877  31.8861866
  20.6818509  74.8941660  32.7191973  48.1480694  75.1110601  41.0962105
  48.8509130  74.6045732  40.6891346  47.3940086  74.9791813  40.5215549
  75.7537031  71.2249899  69.8056173  75.7355118  70.4825592  69.2017174
  76.5848494  71.1343288  70.2716732  81.0488415  16.0330737  28.4499025
  81.7120075  16.6926515  28.2464218  80.2151489  16.4701557  28.2762909
  64.8998976  65.2169514  38.8276649  64.4272184  64.4869041  38.4278631
  64.2326021  65.8901978  38.9606714  81.2362957  44.4084883  35.2322006
  81.9328880  44.9313641  35.6291699  80.7104301  45.0416327  34.7434926
   0.2642759  28.2574463  20.7491326   0.1074251  28.3986044  19.8154807
   1.2177404  28.2428122  20.8322930  24.9117589  29.0649629  30.6003547
  24.9913025  29.9478912  30.9613776  23.9706087  28.9398718  30.4786134
  19.9473464  57.6436186  43.2060909  19.3393457  56.9566107  43.4792042
  20.7486153  57.4636984  43.6978531  15.3983009  39.9630451  65.4841280
  15.4487777  39.7346401  64.5559502  14.4695807  40.1363802  65.6379700
  13.8684046  58.6343193  42.9481173  14.3449330  59.4581556  42.8459501
  13.9586186  58.4189749  43.8764048   5.4684472  49.5144510  17.0518172
   4.7881013  48.8711166  16.8531191   5.0611806  50.1060915  17.6845312
   7.8107417  77.3715544  17.4782014   8.2503235  77.3411131  18.3279502
   8.0313498  76.5370893  17.0643914  50.0419569  19.3042636  38.5393167
  50.8287001  19.8067474  38.7509274  50.3365612  18.6562383  37.8993893
   5.9879500  63.8148689  56.0558414   6.5517032  63.5732746  56.7907190
   5.1002091  63.7741137  56.4114904  57.2591543  69.7528410  46.6858482
  57.1798372  69.4150686  45.7937431  58.0583715  70.2794409  46.6723919
  70.0554705  12.2232103  60.8688068  70.1791573  11.3444853  61.2276649
  70.5710745  12.7906954  61.4418221  81.6284561  78.8830519  20.2955723
  82.4364662  78.3741570  20.3616881  81.8598747  79.6291351  19.7423708
  67.9490519  69.6929789  21.4297009  67.8607702  68.8673592  21.9059181
  67.7459478  70.3666830  22.0786285  17.2623301  57.0541954  11.7161286
  18.1984615  56.8672562  11.7864513  16.9677269  56.5261650  10.9740877
   9.6087557  52.3975420  21.8716407   9.4343752  53.3335590  21.9701290
   9.5496243  52.0480394  22.7607870  58.2898951  22.2703528   1.6007170
  58.9273310  21.6475034   1.2514830  57.5581074  21.7263031   1.8917984
  79.7530222  62.9189730  34.5426440  80.5563164  62.6117039  34.1224670
  79.5621490  63.7529945  34.1134501  17.3661184  41.0068083  41.1941338
  18.0148327  40.4686785  41.6478062  16.6357839  40.4111814  41.0265970
  18.8658810  79.3164682  17.2754323  18.2493031  78.6004496  17.4283266
  18.6545992  79.9625111  17.9493952  78.2284117  26.6940880  45.2306318
  78.8830614  27.2150731  44.7656155  78.3859205  26.8819904  46.1558962
  15.6036317  60.6808662  15.0831974  16.2148273  61.4124107  14.9965286
  16.1004603  60.0074291  15.5478215  12.4531198  60.8019924  25.4579949
  11.8011355  60.4763746  24.8374152  12.4239326  60.1796150  26.1846495
  70.3768110  57.7351379  32.4502707  70.8377981  57.6297665  31.6180325
  71.0477161  57.5852728  33.1163454   6.2058383  42.3612499  27.7206993
   5.5699718  43.0440712  27.5070071   5.9439880  41.6135311  27.1835041
  31.7974758   7.9390305  14.1661763  31.8806267   7.9053843  15.1191640
  32.6755357   8.1616455  13.8568509  55.3865576   0.5377551  31.2089849
  55.7680368   1.3211530  31.6052103  56.1401796   0.0317248  30.9053016
  32.5005651  76.3510561  24.5133448  33.3162189  76.2184477  24.0302730
  32.2142863  77.2295809  24.2634034  84.2868042  39.5745826  68.6455536
  84.0232849  40.2989817  68.0780697  84.4813538  39.9878407  69.4867420
  56.7243862  12.0210600  37.9620433  57.4535799  12.1162021  38.5747910
  56.6246939  12.8893542  37.5717139  11.6318500  72.4805450  26.0737133
  11.4155829  72.7748680  25.1889348  12.5886059  72.4572277  26.0912132
   4.0820378   1.9413097  55.6134653   3.9578533   1.1116754  56.0744619
   3.8797423   2.6109698  56.2668133  41.8435574  14.4462407  11.0690570
  42.2273874  13.6611760  10.6784439  42.3476887  15.1698744  10.6969833
  47.0410252  44.7435999  26.9280791  46.7708921  45.5964518  27.2685242
  46.6332102  44.6906471  26.0637236  53.7479067  28.5256624  40.8162785
  54.5815706  28.9737940  40.6733751  53.1565619  28.9072704  40.1674986
  79.2161798  50.5816746  28.7387872  79.3202925  49.8384047  29.3328738
  78.3247948  50.8922148  28.8976169  12.5882590  78.6780357  21.3522863
  12.3565543  79.6038628  21.2788844  12.6878321  78.3835459  20.4469728
  82.0573425  12.7260184  68.3528185  82.8254414  12.1808136  68.5231304
  81.8064880  12.5123692  67.4541187  72.6994610  12.5619936  40.5865908
  72.7106333  12.8820038  41.4886475  72.4858427  11.6322291  40.6649256
  53.3418941  33.6427069  70.3317833  52.4414062  33.4093523  70.5573988
  53.4179449  33.4319472  69.4011736  31.0104609  71.1860895  37.5668812
  30.4020381  71.8136740  37.1767640  30.6852007  70.3308105  37.2859287
  28.0602765   7.6471514  19.0990186  27.9886556   7.1643072  19.9224043
  28.3995986   7.0062387  18.4742582  84.2766285  59.3492174  52.2441673
  84.4303036  60.2937508  52.2225142  83.7331772  59.2126989  53.0202150
  81.5646267  27.6813197  24.0262270  81.7284775  27.7532053  23.0858970
  81.9975948  28.4468651  24.4040012  23.9596987  59.4094849  28.9039302
  24.4493341  60.2220917  29.0310597  23.0604029  59.6945620  28.7419701
  11.7686915  49.1921329  23.0071735  11.7101848  50.0001049  22.4972844
  11.1408043  48.6008787  22.5919485  70.3768778  10.0467372  63.0576849
  70.2846193   9.3911183  63.7489748  70.9376574  10.7213342  63.4406662
  22.6547241  65.9031868  16.9115376  22.3806787  66.4039040  17.6799226
  22.8609419  66.5674114  16.2538815   2.6722780  77.5483799  25.5441236
   3.5292506  77.1794796  25.7579970   2.8257093  78.0692768  24.7558618
  20.6774592  14.5572436  42.1679020  21.0733104  15.1444411  42.8118992
  21.1353612  13.7254274  42.2888947  48.6283499   0.2711964  49.9985123
  48.6250442   0.7050610  50.8517361  49.1131860  -0.5410767  50.1447248
  21.5925193  68.5503674  37.4663806  21.5790105  68.4985876  38.4220839
  21.1224914  67.7681637  37.1774721  17.2975087  63.3575201  35.5007410
  16.4864385  62.8758860  35.3381848  17.5718307  63.0769014  36.3738012
   5.9707767  66.2096643  39.4782352   5.5205834  66.9807053  39.1331911
   5.2897698  65.7220507  39.9415874  71.0243034   4.4982833  65.6256294
  71.2724733   5.3511763  65.2689552  70.0859976   4.5748714  65.7986832
  15.2680910  52.7978230  28.9064670  15.7139575  53.4655190  29.4276381
  14.3599153  52.8258944  29.2075658  56.1968803  61.2183714  27.0745707
  55.2419376  61.1830950  27.0191431  56.4912081  60.4103851  26.6541409
  39.6195698  50.3683424  42.1453476  39.3957543  49.4689751  42.3846626
  40.2486277  50.6441116  42.8120279  21.4808512  17.8661108  12.3459744
  20.8229518  17.2945702  11.9500709  22.0568132  18.1068850  11.6203523
  72.2093964  56.8175554  15.0722146  72.7565050  56.9974661  15.8367634
  72.6007557  56.0393333  14.6754253  47.2928476   0.5448930  10.1493454
  47.7219677   0.7301041   9.3140095  47.9575348   0.0867580  10.6636763
   2.1857336  63.9416647  43.5174799   2.9204214  64.5431995  43.6383963
   2.4977657  63.1084681  43.8705444  30.2319503  64.4282436  25.2624965
  29.8936486  65.3188992  25.1702476  30.6843066  64.2571020  24.4364738
  43.0668640   3.7927839  33.4279728  43.9590406   4.0236321  33.1692100
  42.5309181   4.0188617  32.6677871  64.0017080   5.4094344  53.9624834
  63.6375952   5.7560211  53.1479073  64.1382456   4.4784564  53.7867880
  42.0272064  11.8562245  60.2205753  42.7605152  11.3797641  59.8313713
  42.3886442  12.7152133  60.4390526  46.0533524  62.9117107  27.1989512
  46.4658070  62.9662848  26.3368964  45.5583525  63.7269974  27.2796726
  19.0887904  59.6965122  11.6551232  19.7931349  59.7159481  12.3030055
  18.2977033  59.5261955  12.1664011  76.2584066  34.7001028  45.6835079
  75.7641602  35.3293300  46.2088919  76.6097212  35.2170300  44.9585295
  29.5985842   2.5038421  25.0406313  29.1743755   2.1704938  24.2499614
  30.5340934   2.3782964  24.8815989  31.1715698  49.0280914  25.6317186
  31.7367578  48.5294390  25.0416827  31.6874313  49.8010540  25.8611679
  25.9498239  38.2582951   8.3429492  26.3158154  37.5899434   8.9222503
  25.2967095  38.7082148   8.8789016   1.2385429  41.9635201  24.9503350
   1.5085082  41.1577749  25.3909326   2.0474392  42.3163700  24.5796394
  84.3632698  37.0579386  22.7111292  84.9971199  37.6746130  22.3448277
  83.5230637  37.3309302  22.3426843  84.9913311  73.0960941  43.3661032
  85.4098511  73.9551878  43.3111095  85.6676197  72.5228596  43.7270212
  83.2415199  10.0023305  65.8050013  82.9916954  10.2567625  66.6933060
  82.4094009   9.8747641  65.3494310  27.7801132  21.9522524  13.4368420
  26.9570780  22.3331428  13.7430596  28.3280802  21.9045997  14.2202282
  80.0039864  21.0365415  13.0098331  79.7694683  21.4191389  12.1643460
  79.9575710  21.7683864  13.6250389  76.0517406  29.9352646  14.4062388
  76.5286160  29.4929266  13.7039852  76.6884613  30.5430889  14.7822213
  24.3564796  28.0006075  44.3091917  25.3013039  27.9979372  44.4625807
  24.0023422  28.5537028  45.0055408  13.9767444  72.8351164   5.8994776
  13.7296462  73.6981058   6.2317771  13.5854518  72.2189713   6.5187395
   4.0657175  49.4266653  34.9408293   4.5310935  49.6466351  35.7478428
   4.7402835  49.0641880  34.3665481  16.3509297  63.6156273  19.6776092
  16.5218854  63.0460882  20.4276967  17.2179461  63.9075422  19.3960083
  41.7400503  29.1443467  21.6244364  41.0738182  29.8281837  21.6932440
  41.2525511  28.3252954  21.7123604  51.8424273  74.7082663  64.3601418
  51.3012123  75.3057384  64.8762226  52.7088976  74.7610426  64.7634745
  16.6899753  20.7195950  44.0827417  16.9063783  21.6477990  43.9942122
  16.0065353  20.5696392  43.4295511  14.8760509  56.5477991  22.5731134
  14.2995846  56.9773006  23.2051325  14.3858659  56.5656424  21.7511439
   3.9020678  35.1808262  17.5108278   3.1710464  34.9651885  18.0899131
   4.4127214  34.3728971  17.4587083   1.5218146  35.0877833  10.7318449
   0.7871753  35.6162286  11.0437429   1.1750548  34.1965818  10.6899977
  85.9650993  13.5347819   9.8035222  85.8746338  13.0706227  10.6357515
  86.6560745  14.1779733   9.9618828  69.5819235  47.6812124  26.3865685
  68.8888693  47.6431036  25.7274389  69.4053411  48.4861469  26.8735266
   8.7573946  42.5655222  26.8763447   7.9228163  42.4430418  27.3287940
   8.5138530  42.7351475  25.9663200   1.2685969  39.7218800  22.5996137
   0.4689044  40.1232433  22.9396558   1.4448388  38.9953709  23.1974053
  27.9889750  44.5315218  38.9896894  28.4346557  44.3111897  39.8076463
  28.6944413  44.6197367  38.3487773   8.5416710  59.7756863   9.6831274
   8.9714980  59.6482134   8.8374144   8.9146364  60.5899000  10.0210428
  75.2609110  80.7366180  33.2707024  74.8220539  79.9742079  32.8933907
  76.1823320  80.6220341  33.0381441  45.0113821  19.5544279  70.2404308
  45.9078026  19.8895264  70.2212143  45.0515556  18.7962258  70.8233118
   6.8201989  29.6090245  17.2639000   6.4354867  30.0692320  18.0098474
   7.3894155  30.2577400  16.8499029  85.3467941  35.3087854  27.1375585
  85.4132271  36.1871195  27.5121880  85.6126118  35.4171395  26.2244129
  56.0813713  44.2913437  62.2660446  56.4803743  44.0284014  61.4366531
  56.5008545  45.1246834  62.4800777  22.7645087  34.7939920  32.2269273
  22.8850102  34.2132473  31.4756322  23.2413292  34.3669796  32.9386377
  21.5343928  50.9444761  10.3173316  22.0620537  50.5983257   9.5976186
  20.6967545  51.1705732   9.9130154  79.8678589  17.0739651  19.1242087
  79.1684008  17.6630306  19.4070351  80.3902626  17.5970221  18.5161495
  15.1876688  55.7885790  58.6850500  15.2637374  55.2269363  59.4564152
  15.0124311  56.6601896  59.0397549  56.6943789  71.5647221  62.6202011
  55.8530855  72.0209503  62.6024199  57.2084951  71.9833326  61.9297838
  63.0415106  13.2468307  37.5035381  62.7158785  12.8213227  36.7103529
  62.4841022  14.0179801  37.6077247  31.3333726  27.9166722  51.8019342
  31.2899470  26.9665217  51.6944122  32.0303273  28.0534911  52.4436235
  73.2915592  74.8762083  23.6175060  73.2952452  75.6362820  24.1993189
  72.4476814  74.4545364  23.7796736  17.1244407  64.7045851  22.6077175
  17.6613557  65.3469610  23.0717301  17.4620116  64.7125149  21.7120528
  35.0996113  39.5715213  69.3785477  35.5682993  39.0144992  70.0000668
  35.7902884  40.0246906  68.8949823   0.3848149  58.8926411  16.0082901
   0.2131774  58.3014059  15.2753425  -0.4591888  58.9750576  16.4522469
  31.3686180  75.9326363  64.8066425  31.2785339  74.9889803  64.9394321
  30.6167531  76.1710501  64.2643356  20.8454490  51.7228222  42.3911190
  21.0060787  51.1226559  43.1192875  21.3357997  51.3482285  41.6593599
  44.6204424  80.8653927   6.6091627  44.2233944  80.8060455   7.4781084
  44.2660427  81.6736603   6.2385917  15.0352311  25.1675129  34.9708176
  15.9394836  25.3523374  34.7170496  14.7895324  25.9018159  35.5335498
  14.0379393  27.7228713  39.3410563  14.0055776  28.6689687  39.1993380
  14.9105287  27.4657774  39.0431929  37.7074909   2.4822789  56.5182209
  38.1226730   1.6245607  56.6086340  37.8733182   2.9179654  57.3542309
  82.8927422  38.7576580  57.3859262  83.4495449  39.4298029  56.9929600
  83.5072422  38.1256938  57.7590895  79.0331984  66.6766930  46.2763214
  78.1046200  66.9088268  46.2667179  79.4248199  67.2816944  46.9062710
  85.4178905  53.8794470   7.4370813  86.1727810  53.4360886   7.8241217
  84.7697830  53.1858301   7.3142654  42.6552629  52.2701168  33.3610177
  43.0613422  51.4262152  33.1631303  41.7147541  52.0928049  33.3457279
  38.9718342  81.0110283  30.6088901  39.0272760  80.4598141  29.8283005
  38.3276701  80.5736828  31.1656761  81.5013123  77.5779676  12.2085238
  82.1039200  78.1879759  11.7830920  81.3623619  77.9475355  13.0804992
  48.9270639  77.0338488  60.9074497  49.7426748  76.6094303  61.1736917
  48.8451767  76.8319607  59.9753714  40.3418159  19.5692372   0.4388511
  40.5995941  19.9847841   1.2617138  40.1301861  20.2997351  -0.1423684
  16.4698827  46.4368296  12.3050749  15.5623364  46.5204239  12.5976539
  16.9234574  47.1713591  12.7185547  84.1157818  60.1701164   2.4576981
  83.5600948  60.8799601   2.7795109  84.4548321  59.7534084   3.2499254
  74.1596031  45.2525616  30.2600861  73.4702778  44.8491335  29.7325397
  74.0654182  44.8517799  31.1242247  55.8398819  75.5401134  52.6355171
  56.6889381  75.6064606  53.0724764  56.0513639  75.5258751  51.7020798
  35.2165914  46.7512941  24.7485971  35.4367113  45.8894968  24.3949246
  35.1632547  46.6154623  25.6946087  40.8404493  60.5003691  17.6889884
  40.8819675  61.3362217  17.2243893  41.6406155  60.0428486  17.4308348
  49.9164009  14.6245897  70.2492762  50.5304003  14.0402031  70.6939411
  50.4720354  15.2040577  69.7280121  23.9328241  47.1452284  48.4662104
  23.7709808  47.0722055  47.5256205  23.1485629  47.5715351  48.8117981
   1.9461769  35.6279516  52.6322412   1.0837153  36.0427666  52.6143742
   1.9376858  35.0917697  53.4251261  80.1087952  67.9872799  31.0736012
  80.8146381  68.0225945  30.4280233  79.3664074  68.4081459  30.6400561
   7.5471282  44.1619015  34.9450517   6.8642563  43.5426712  34.6872377
   7.9970282  44.3762541  34.1278148  25.7206988  19.4778812   3.6911780
  25.4922223  18.5544729   3.5846433  25.4648876  19.8849452   2.8634751
  18.4283078  49.3303633  10.2869773  18.1919074  48.6573601   9.6486896
  18.8994789  48.8559151  10.9719074  84.8374844  73.4117746  47.1761322
  85.4316235  74.1074705  47.4576187  84.7453499  72.8496647  47.9453993
  29.4583082  73.6260080   0.1659814  29.9220395  73.2149363   0.8955052
  28.5682416  73.2782650   0.2215544  69.9400997  62.8159904  36.1825132
  70.7315779  63.3263969  36.0114145  69.2560101  63.4721804  36.3154435
  30.3285521  81.0218712  56.5536499  31.1469001  80.5388758  56.4385271
  30.4317922  81.8015143  56.0080051  79.5748138  47.8630495  20.3188658
  79.4784403  46.9554949  20.0302625  80.4143906  47.8804207  20.7782555
  25.6222939  31.4913464   7.8965300  25.1588154  30.7090807   8.1956661
  24.9689198  31.9801927   7.3961669   7.8998905  41.5405464  42.5517178
   8.8208383  41.3904524  42.7651644   7.8917444  42.3896027  42.1098232
  43.8253927  27.6974273  17.9724979  43.2466030  28.4530210  18.0740452
  44.5792389  28.0363417  17.4897158  21.3490057  20.6136394  22.6004720
  20.4793143  20.9539127  22.3905206  21.5542245  20.9919310  23.4554648
  81.5583229  51.1204767  65.5331564  81.8722439  50.4243994  64.9559546
  82.1707726  51.1160612  66.2687635  72.8643847  39.1966152  63.1377172
  72.4976873  39.7744942  62.4685240  73.3049393  38.5060120  62.6425266
   6.5729207  61.5311575  30.8775091   6.3736373  62.4561787  30.7331085
   6.4071214  61.3931751  31.8100882  51.0205221  70.6472254  19.1568732
  51.3513184  71.4916039  18.8505435  50.7794237  70.8015347  20.0702691
  53.2912540  80.5483437  69.4130039  53.4302807  80.4983425  68.4672785
  52.3831415  80.8360672  69.5067120  82.9043865  15.3315878  68.3270931
  82.7554607  14.3904090  68.2363415  83.7233829  15.3982449  68.8180542
  13.3230674  72.3609543  35.5456519  13.6578643  72.5894356  36.4127970
  13.1035304  71.4315557  35.6109118  86.7027760   5.7146597  66.8811893
  85.7856178   5.9864205  66.9157028  86.6694832   4.7580522  66.8862534
  47.7657127  73.7847519  63.4028721  47.0146608  74.3331957  63.1762409
  48.3356810  73.8300323  62.6352024   2.8854647  68.5839558  53.8748693
   2.0388582  68.6690807  53.4364128   3.2305160  69.4762993  53.9047432
  30.0780797  51.3906908   1.8508478  29.4739509  50.7509661   2.2276878
  30.4924178  50.9285450   1.1221670   2.5108880  32.2909355  16.7385721
   3.4646469  32.2226596  16.7823184   2.3442721  32.8226256  15.9602571
  74.5164776  11.5325427  68.3609056  74.3162298  10.8653378  69.0173912
  73.9333439  12.2610307  68.5741949  45.3165102  13.0260551  22.9762363
  44.6208191  12.9808331  22.3203397  45.6485939  12.1302521  23.0353045
  31.2533569  13.4133577  28.3297062  31.2462115  14.3124747  28.6579871
  32.0210576  13.0148101  28.7396169  45.4624510  19.9467063  32.3994112
  44.7041321  20.1279855  32.9546762  45.6259537  20.7708120  31.9407749
  84.5146465  36.5944481   8.1735975  85.2897167  36.0789204   8.3966005
  84.3020630  36.3321161   7.2779286  19.8494267  56.7545795  10.9312141
  19.5415747  57.5075293  10.4267108  20.5649543  56.3924742  10.4085934
  58.0701685  64.9163532   9.8777384  57.2473240  64.4695902   9.6788287
  57.9770947  65.1953936  10.7886207  51.0163546   6.7170048   7.8605360
  50.5714846   7.0662695   7.0883083  51.8290472   7.2196239   7.9165626
  73.3140039  33.3994246  11.9787264  73.5000277  34.0667009  11.3181424
  73.7688112  33.7057543  12.7632928  18.1076360  30.1537561  37.8234053
  17.4779630  30.6805253  38.3156061  18.0199099  29.2730498  38.1879497
  28.1995702  27.2443914  26.4415264  28.1791520  26.4292669  25.9401441
  27.2784901  27.4518490  26.5990186  86.4235716  48.4836960  44.6242142
  85.8612665  49.1481590  44.2260551  87.2270153  48.5071230  44.1044474
  70.0479794  58.6026096  68.7935829  69.8237753  59.2400265  69.4715691
  70.5849695  57.9514980  69.2451620  77.1296501  12.9982948  60.9473372
  77.0814705  13.7552571  61.5312195  77.6317263  12.3482490  61.4388561
  14.3518662  43.9284992   5.7465488  15.2250957  43.5368490   5.7641715
  14.3928313  44.5734310   5.0404233   4.4211909  44.0129137  21.4942336
   3.7057778  43.3937979  21.3489342   5.1458108  43.6683941  20.9722543
  69.6088839  24.6402645  14.5816553  70.4381847  25.1008606  14.4538248
  68.9615917  25.3374004  14.6877050  37.8789258  72.5319147  19.6363652
  37.5568223  72.7883434  18.7722313  38.8138628  72.7359056  19.6137094
   0.3098496  32.0768166  64.9592304   0.5993235  32.6933885  64.2867184
   1.1102031  31.8407607  65.4282141  12.4125504  58.8368177  11.2924206
  12.1933627  58.3250713  12.0710766  13.3475673  59.0209675  11.3822186
  36.1919951  59.9062777  12.1303761  37.1277499  59.7290754  12.0344973
  35.7631421  59.1284132  11.7736650  15.2645528  69.0478611  33.6711764
  14.6554589  69.7851849  33.7110472  15.5074894  68.9875698  32.7472830
  63.6956453  76.7715788  21.0250807  63.6371756  75.8663034  20.7196546
  63.1024504  77.2566700  20.4514599  72.1976471  25.8981633  69.6882629
  73.0358410  25.6762981  70.0937748  72.1835756  26.8551755  69.6755886
  82.7589703  25.3377104  67.3007679  82.8419971  24.4537473  66.9430685
  82.5305176  25.2034163  68.2205486  40.2045012   5.6938034  16.8402886
  40.1934814   4.7415662  16.7435718  40.4726219   6.0187578  15.9807849
  13.6027741  56.2163258   2.9217672  13.7754703  57.1046066   2.6097426
  12.9015434  55.8953857   2.3547515  86.0859203  37.0756507  25.0301266
  85.6257915  37.0324206  24.1918850  87.0065022  36.9407558  24.8052597
  24.5082498  42.3820734  14.1133106  23.6096168  42.1801758  13.8526738
  25.0041056  41.5931082  13.8944602  11.2849224  71.9464588  14.9886835
  10.7376528  72.3564959  15.6584597  10.6775427  71.4116478  14.4775105
  22.5714087  57.6381207  13.5817790  23.0595112  57.7257252  12.7630520
  22.6848912  58.4816647  14.0197146  71.0349417   3.4823874  59.2249918
  70.7203531   4.3434045  58.9494610  71.6195583   3.6651060  59.9605608
  38.3813739  67.5523663  30.4988575  38.2529831  67.1319532  29.6485615
  37.5207734  67.9060793  30.7235408   4.5409736  29.4124365  50.7993126
   4.4272649  28.7573218  51.4878798   5.3605384  29.1681933  50.3693199
   9.5473003  42.0812035   5.0813937   9.7486812  41.3906860   4.4498387
   8.6087114  41.9895363   5.2453440  21.4683986  47.5976992  36.1576533
  21.3761854  46.9652939  35.4450607  20.6706071  48.1248856  36.1147594
  34.0966773   7.8375804  55.0961447  33.2435369   7.4163711  55.2008724
  34.1765857   8.4097743  55.8593225  70.3956127  18.2922566  43.4882879
  70.1550865  17.4847424  43.0340910  71.0403347  18.7066674  42.9148531
  66.9973707  61.5638161  44.1112709  66.1722851  61.1586761  44.3783569
  66.8832207  62.4931765  44.3099976  69.6873379  80.8306885  54.7194290
  69.7258759  80.4990482  55.6165123  70.2753878  80.2580833  54.2269230
  12.9476988  32.6752687  50.5526543  12.6255584  31.8456888  50.2001572
  13.5205126  33.0202246  49.8677301  27.8753281  24.2908788  61.0233021
  28.5070133  25.0093555  61.0548687  27.4787712  24.3585992  60.1547480
  78.0853510  51.9182110  42.8367710  77.5012541  51.2002420  42.5926590
  77.5081730  52.5741768  43.2276678  84.2577267  53.5349464  10.7562387
  85.1605129  53.7577772  10.5291796  84.3281364  53.0709410  11.5904880
  76.7594481   2.5850105  34.7347498  77.0516348   2.6930052  35.6398439
  77.0210171   1.6937946  34.5033479  20.2387977  36.4563012  43.7859535
  20.2156711  35.4998970  43.7545538  20.8190298  36.6578794  44.5200729
  84.2390728  62.7607489  16.2113106  83.7816715  63.5846233  16.3793671
  85.0794792  63.0253601  15.8372438  82.7910614  44.0949917   9.3966186
  82.9503822  44.3291473  10.3109610  83.2207394  44.7869396   8.8938105
  17.1473181  38.5065103  37.5524163  17.3171210  37.6369810  37.1900368
  17.6819849  38.5440707  38.3454800  69.3854284  60.2495289  39.9062920
  69.1389704  61.1588001  39.7368503  70.3078127  60.2006102  39.6551943
  21.5272760  33.4929657  16.1779952  21.0749292  32.8069019  15.6871474
  21.7331386  34.1599798  15.5230570  13.7087655  53.9986563  26.5247655
  14.4439495  54.1911173  25.9427881  13.9208496  54.4566679  27.3380804
  26.4398408  42.6645756  42.0265245  27.2267151  43.1984854  41.9169855
  25.8270264  43.0045748  41.3745356  18.2644808  59.7014523   3.8878569
  17.6132965  59.0235996   3.7069952  17.7530003  60.4474735   4.2010161
  82.1518993  52.2693491  14.1240823  81.3691998  52.8173304  14.1817188
  81.8738842  51.5073299  13.6158860  20.4536748  60.3470659  13.8606131
  19.6802568  59.9840212  14.2921853  21.0818005  60.4835653  14.5698774
  19.1821098  28.9102006  26.6700888  19.5454228  28.9759612  25.7869625
  19.4389582  29.7279119  27.0962453  16.8748784  75.4594755  23.8448286
  17.3280466  74.6606112  24.1144371  16.1387169  75.5338049  24.4520950
  26.5076017  39.8892927  25.1013613  26.6419649  39.9751353  26.0451889
  25.9810114  40.6525707  24.8640013  16.7076612  61.8867922   4.6342677
  16.3940132  62.7851534   4.7382078  16.2869251  61.4025068   5.3446764
  68.2128048  17.3466206  69.3175888  68.4528017  17.9829490  69.9911785
  67.9860735  16.5550935  69.8057604  66.4840651  -0.0824572  35.7459998
  66.1532831  -0.0891619  34.8477960  66.3214970   0.8089783  36.0544586
   2.1060835  10.1515782  69.7664499   1.8015857  10.7787669  69.1105938
   2.3060851   9.3602526  69.2664146  10.4627359  26.7663908  28.4990120
  11.2839818  26.4483643  28.8740396  10.6688309  27.6457834  28.1821156
  48.7757206  73.6982536   7.2420985  49.3289042  72.9562092   7.4861926
  49.3586302  74.2821074   6.7567486  29.3729091  67.1524763  52.2870827
  29.3800473  68.0023336  51.8467140  28.8370633  67.2918081  53.0679035
  84.3626499  81.4295483  23.0618048  84.0875244  80.5737209  22.7330375
  83.5480690  81.9235611  23.1548142  18.8802910  51.3721466  27.0989490
  19.1655838  50.9305143  27.8988266  19.5908451  51.9800615  26.8945384
  29.2233205  52.1211004  70.1706266  29.9638438  51.9227743  69.5974541
  28.4710932  52.1725893  69.5809364  40.9326172  32.1347761  10.9872043
  41.1765718  32.9461694  11.4325821  40.5397177  32.4226546  10.1631987
  58.8635731   8.2183868  36.8770337  59.5590782   8.2740778  37.5323224
  58.9045382   9.0543878  36.4126468  60.6212854   6.6686749  64.7275925
  61.3619280   6.2506217  64.2883778  60.5730963   7.5414795  64.3375683
  84.4626617  49.4046450   7.8294790  85.3915405  49.6273422   7.7676111
  84.0909576  49.6940994   6.9962436  70.1704407  11.3741338  48.5272598
  69.4084501  11.9519448  48.5689211  69.8007107  10.4971266  48.4253168
  83.6935139  64.2598391  24.1047192  84.6467876  64.1954231  24.1627264
  83.3712482  63.6334085  24.7527623   6.9470203  46.9142294  17.0731509
   6.3988173  47.5435543  16.6044760   6.5170944  46.8073320  17.9216611
  79.1228676  48.2530594  47.1290874  78.5472202  48.3842278  47.8825188
  78.7430048  48.7977982  46.4397383  34.5238733  52.9175329  28.2887721
  34.3901181  53.3935404  27.4691606  35.0140667  53.5258865  28.8418055
  14.2363489  45.4379559  41.2272692  14.1749084  45.2530336  40.2901173
  15.1718390  45.3810072  41.4218140  29.3070197  14.8197353  56.5559435
  29.1574979  13.9395845  56.2106752  28.9841914  15.4041326  55.8700180
  29.1268015  70.9193182  24.5964408  28.5022306  71.5834713  24.3048143
  29.6863532  70.7660341  23.8351035  60.8034182  53.2781744  58.4854555
  61.4378452  52.5994205  58.2551861  60.8615494  53.9126301  57.7710867
  76.5322351  55.7217264  32.6846743  76.9240761  56.5239382  33.0298543
  75.8901691  56.0256243  32.0430923   1.4193171   4.7628674  20.2227664
   1.7280769   5.4707587  19.6572673   0.4649003   4.8128614  20.1696539
  14.1956401  52.6347637  35.6990218  14.7929537  52.3626804  36.3957429
  13.3937585  52.1386814  35.8637071  44.9463844  50.1972103  31.0468721
  44.1590691  50.3744507  30.5321336  45.5497122  49.7860336  30.4278708
  48.9908838  21.3202381  66.5069628  48.5225105  20.5553365  66.8413067
  49.8171234  20.9689546  66.1750603  77.7674246  64.6241713  14.6110344
  77.0796776  64.7255945  13.9530456  78.5785866  64.5798683  14.1047847
  64.4648361  52.7291393  11.8995714  64.2986441  51.7920160  12.0016205
  64.5976496  52.8478146  10.9590876   5.3428632  47.0495653  49.1776705
   5.9764856  46.9300508  48.4702301   4.5720425  46.5577888  48.8944292
  47.0322418  52.7561331   4.0840971  47.6784182  53.3071470   4.5257655
  47.0713997  51.9208097   4.5498592  46.1473322  36.8767452  61.8341303
  46.2373209  37.8228831  61.9479656  45.8540440  36.5595603  62.6883030
  61.5472746  67.2907543   6.3624877  61.3547993  66.8637991   5.5276841
  61.4346313  68.2246685   6.1854452   9.1708571  42.9755783  53.5132980
   9.3456697  43.7699890  53.0087328   8.9577317  43.2915640  54.3913412
  84.2359447  66.4054632  26.6752338  83.3899021  66.7295885  26.3663912
  84.2881870  65.5117273  26.3364983  65.3060293   1.9474329  55.5422735
  65.2844667   2.4707976  54.7411156  66.1860991   1.5713680  55.5590820
  43.1686163  14.8911679  38.0086088  43.3775759  15.6437588  38.5619402
  42.2189665  14.7962475  38.0820107  52.2043848  77.7805853   5.3742498
  51.7485619  78.4691143   4.8901144  53.0370617  78.1780291   5.6290442
  22.6115894  60.6782913   5.3158116  21.8690157  60.1178122   5.5409324
  23.1830883  60.6381607   6.0826302   7.1201074  62.5510645  49.0077257
   6.6179562  61.8157959  48.6563635   7.8705066  62.6317358  48.4189796
  49.6051168  17.1955335  10.1402044  49.1972256  16.9700360  10.9762716
  49.8293304  18.1222022  10.2253103  43.8571644  -0.1957983   1.1615910
  44.7382498   0.1774973   1.1376882  43.3206749   0.4247318   0.6682834
  79.5358133  63.0472231  28.1577229  79.6231508  63.9951515  28.2579112
  78.8278532  62.9376936  27.5228786  45.0567293   3.9527497  19.2250347
  44.2138290   3.7828258  19.6456015  45.6183004   3.2338476  19.5149505
   7.1370006  60.8003950  25.7196164   6.9529885  60.7961798  26.6589546
   7.5340331  59.9461937  25.5494952  51.4752960  62.2319412  29.0804148
  50.9601450  63.0324078  28.9798832  50.8311367  61.5583754  29.2985868
   9.7785425  40.6363630  45.7125854   8.9664811  40.4075098  46.1647081
   9.6157449  41.5091705  45.3549004  56.3184834  58.7596512  25.6572247
  57.0998907  58.5267210  25.1558471  55.6282091  58.8440323  24.9994779
  84.8156643  59.5433044  24.3576217  85.4620838  59.7250271  25.0397849
  84.1294289  59.0472364  24.8039722  65.1299667   3.9093369  59.3073463
  64.3920279   3.3486980  59.0678406  65.1027536   4.6252605  58.6725664
  82.6150990  71.9212389   6.2034309  82.0797920  71.2688971   5.7516277
  82.4590302  71.7566872   7.1333748  36.6990089  77.9802561  65.4966450
  35.7502508  77.9135656  65.3887606  37.0554709  77.3355913  64.8854351
  12.4193084  56.5827465  32.2973013  11.9589782  56.9145155  31.5264201
  13.1972194  57.1359634  32.3682666   5.0250918  40.6702948  67.6056194
   5.4311597  39.8609829  67.9160261   4.1053489  40.4410172  67.4724388
  60.8024645  18.1940138  20.4408383  61.4260340  18.7828875  20.8658314
  60.8817577  18.3938861  19.5081031  45.6541252  42.7787113  28.4551907
  45.0362968  42.2259283  27.9767013  46.1620903  43.2167912  27.7723408
   6.0454476  59.8954296  21.5913963   6.1601245  59.1695690  20.9780359
   6.8725377  60.3756046  21.5515661  73.8415861  36.8747592  58.6714602
  73.9595509  36.0547280  58.1920147  74.7274351  37.1327949  58.9262581
  29.6764302  70.6324100  17.9531848  29.3470454  71.1360455  17.2088122
  29.9220276  71.2938595  18.6000264  52.9475021  10.2081704  48.4683514
  52.8333712  10.4001975  47.5375843  52.8202057   9.2618203  48.5350323
  25.9106231  62.0295525   1.0804351  25.8366251  61.5544701   1.9081138
  25.0283170  62.3620033   0.9153865  28.3216906  44.4694757  45.0713301
  28.1082177  43.5601950  45.2807617  29.0987492  44.4111443  44.5154428
  38.7648773  49.9343586  25.2011251  38.0401969  49.6437263  24.6474028
  39.4096875  49.2294741  25.1412439  18.7812257  52.3295259  13.6125636
  19.4560158  52.1760988  12.9512382  18.6669850  51.4805269  14.0396297
  69.0143061  15.0122344  27.8354764  68.2394075  15.5725789  27.8776121
  69.7500896  15.6233788  27.7985597  54.3553543  25.9583473  47.7139616
  53.5713577  26.3146639  47.2960854  55.0580072  26.5529275  47.4513054
  10.6184721  59.9994469   1.3620193   9.7309077  59.7134447   1.5780421
  11.1273873  59.8186207   2.1522968  20.7394171  63.8171244  16.5149426
  21.5000916  64.3911219  16.6051209  20.4940391  63.8878250  15.5924344
  13.2218051  79.0809441  49.3125248  13.2822204  78.1556320  49.0750837
  12.9565775  79.5189190  48.5037804  69.1621733  43.5358286  64.4458675
  69.3765116  42.6445723  64.7214699  69.5222378  44.0930223  65.1358843
   8.6287344  63.5066032  24.6978235   9.4967407  63.4106827  25.0897360
   8.2679451  62.6200056  24.6949196  32.1424961  35.8867908   9.3844116
  31.8232560  35.8036280  10.2829671  31.4562845  35.4889226   8.8486451
  83.8609695  31.3920283  70.6284571  83.1195450  30.7921767  70.5465889
  84.3990326  31.2144566  69.8569775  29.4748926  72.4404669  16.0444784
  29.4191337  72.4203968  15.0891137  29.8802304  73.2845592  16.2430620
  73.1388617  20.1669526   7.6797867  73.0261230  19.8840678   6.7723203
  73.5299349  19.4118452   8.1192291   5.5973196  16.7962646  47.0857477
   6.3944721  16.3349128  47.3463869   5.2799928  17.2009873  47.8930473
  41.6769457  35.3585672   9.2803949  42.4907780  34.9166274   9.0383130
  41.8672371  36.2897968   9.1671145   5.8575439  42.9642105  30.3628516
   5.9953225  42.2248173  30.9549165   6.1369538  42.6405859  29.5064473
  54.4531727   3.5200649  38.4255362  54.8031950   3.3592889  37.5492549
  55.1731586   3.9378437  38.8981009  19.7427297  77.6715183   1.3680144
  20.5515623  77.1896696   1.1952701  19.5204246  77.4499655   2.2722962
  50.1256943  24.6906090  14.6124637  49.6385098  24.1813588  15.2601886
  50.3332186  25.5110788  15.0596702  56.4002275  54.2736387  27.4925375
  56.3975096  55.0412560  28.0643678  56.8355703  53.5935831  28.0065751
  62.3746634   6.3469130  44.1428947  63.1386757   6.3267535  43.5666037
  61.7782116   6.9701958  43.7281752  62.1257162  14.6746099  32.8691506
  61.9322872  14.9741566  31.9808412  62.9466391  15.1115692  33.0958295
  36.2436342  11.6013563  11.3670731  36.4978456  12.5241387  11.3760138
  35.5720067  11.5445185  10.6874287  69.4626045  20.1292014  60.4145765
  70.2963018  19.8115575  60.7613945  69.7065973  20.8253670  59.8046160
  66.5600634  21.5471053  67.2527885  66.8665171  21.1894703  68.0861092
  66.4705753  22.4864268  67.4137115  29.3483734  59.2537069  33.1355882
  28.6182547  58.7100029  32.8397059  29.9869013  58.6298943  33.4810877
  73.3796740   3.2414952  66.5405893  73.1563950   2.3486394  66.2775564
  72.6395559   3.7708575  66.2435532  62.6127100   2.3822719  30.7176208
  62.7565670   2.6830229  31.6148877  63.4429741   2.5513855  30.2723145
  18.5109401  63.2410765  12.4022067  18.5500574  62.5042057  11.7925143
  19.3670177  63.6621332  12.3242748  55.0403166   1.5250023  20.8213568
  55.3534079   1.4794341  21.7247558  55.6303596   2.1461330  20.3944182
  40.0232810  81.6727634  18.7122738  39.2030639  82.0079903  19.0743470
  39.7808713  80.8458254  18.2955694  18.9243627   6.5926343  11.0957289
  18.8403785   7.5420827  11.1836267  18.0225635   6.2717313  11.0921323
   9.3652624  81.5012217  38.1870127   8.4395808  81.2678143  38.1172395
   9.5188898  81.5930766  39.1273284  18.9491677  72.2263765  34.5410013
  18.9509010  72.9136229  33.8747287  18.0228686  72.0274401  34.6774888
  29.0654612  74.4997120  55.4171562  29.2800641  73.6705875  55.8446264
  29.8645830  75.0213623  55.4914427  57.9887056  19.3950427  48.7301731
  58.5019207  19.9135053  49.3498802  58.6198759  18.7857580  48.3472538
  17.4170256  78.7900162  30.0856471  16.6177833  79.1474581  30.4725313
  18.1005859  78.9823341  30.7275128  40.4881859  58.8755560   0.6350448
  40.1468658  59.4115496   1.3508980  39.7501945  58.7824774   0.0326021
  80.9659195  32.8671122   4.9261418  81.3269520  33.1413221   5.7691711
  81.4021873  33.4280968   4.2848915  50.7553101  77.2669125  21.6197014
  49.9928808  76.9968987  22.1315837  51.4510441  76.6688299  21.8926144
  -0.0255495  69.8910379   3.8564095   0.7755515  70.0665903   3.3627999
  -0.4951115  70.7251501   3.8554460  46.1164570  80.7979393  13.2322204
  45.7502270  79.9619436  13.5207057  46.7535400  81.0266304  13.9090157
  40.7816172  23.7236762  25.9842300  41.2036991  24.2790484  26.6396999
  40.8821392  22.8342271  26.3233566  56.0424280   1.5035436  23.6002684
  55.1811028   1.8730214  23.7947965  56.4742470   1.4411399  24.4522476
   9.7977549  67.0492697  11.4550745   9.2671669  66.2939644  11.7085004
  10.1115263  66.8374062  10.5759299  11.2602586  81.8976648  17.6164269
  10.5290860  81.4252573  18.0144858  11.9923514  81.2821982  17.6547992
  10.0444996  48.8995647  42.2688675   9.9935693  49.8553944  42.2742271
   9.2821312  48.6219406  41.7609787  68.8294077  23.0050278  12.1164477
  69.6773195  22.5633287  12.1631336  68.9786148  23.8543987  12.5318289
  54.6865368  69.3622828   6.6458142  55.0779819  69.9370909   5.9880900
  55.4335070  68.9995909   7.1219677  46.2492943  10.0378025  50.4896498
  45.7806444   9.2079359  50.5786467  45.7760334  10.5076897  49.8030186
  71.6613483  18.6405540  55.0123072  71.0271835  18.9893627  54.3858862
  72.4424601  18.4626126  54.4884443  59.2091560   4.5623505  42.5624037
  59.2573738   3.6247990  42.7492285  58.9153147   4.9555245  43.3841705
  36.5263605  43.7232971   9.7737539  36.5206742  44.2717600   8.9892876
  37.4311590  43.7585831  10.0841177  72.4227905  52.4069881  38.7241244
  72.6022243  52.2681856  39.6540523  73.1744480  52.9078579  38.4073091
  82.7932453  10.8969700  25.4171300  83.4530258  11.5900588  25.4406881
  82.6557827  10.7287300  24.4849110  14.0521634  12.0563960  53.2589722
  14.6050179  12.1039033  52.4790192  13.8641107  12.9696834  53.4752464
  24.8313880  52.0215797  64.4570208  25.0765133  52.4896669  65.2551699
  23.9410067  52.3184729  64.2691183  61.2089491  79.4407320  63.0289125
  60.2835655  79.2618847  63.1959677  61.3519049  80.3170204  63.3865690
  38.2096362  38.3941746  14.2905605  38.6379147  37.7182436  14.8158503
  38.9220858  38.9715672  14.0162158  60.7751131  17.6192081  41.1258030
  60.4609776  16.7228651  41.2446356  60.5971766  17.8153980  40.2059793
  18.4850645  68.0773354  56.9024658  19.3877721  68.3118963  56.6872215
  18.4279084  68.1905317  57.8512287  67.4456596   2.5634286  34.9453855
  67.7604198   1.8695758  34.3659663  67.0329046   3.1968454  34.3583179
  34.0991497  56.3127851  17.8248715  34.9660230  56.0608387  17.5066197
  33.9643836  55.7741547  18.6045814  46.3177824   6.1946267  20.1335335
  46.9174767   6.5373504  19.4708598  45.8898020   5.4516912  19.7079575
  21.5908813  78.0831575  37.8333306  21.6769266  77.1428061  37.6766014
  22.2864556  78.2863760  38.4587193  23.0596018  21.7423105  60.8890438
  23.5041404  22.1875381  61.6104269  22.6219821  20.9971976  61.3007879
  47.9154587  10.9980416  65.2983856  48.0774593  10.9443080  64.3565273
  47.0286512  10.6551015  65.4088306  -0.0233264  79.9377775  58.0217171
   0.3528351  80.1616859  57.1704817   0.7312939  79.8699951  58.6066818
  23.3818483  75.0230408  26.4750981  22.6382256  75.3053951  27.0075750
  23.2898760  74.0718365  26.4204884  51.6361761   2.2858639  62.4130011
  51.4463806   3.1812847  62.1329451  52.0907974   1.8931210  61.6678143
  80.9221458  30.0578690  21.6656518  81.7055607  29.5097136  21.7105317
  81.2540245  30.9345889  21.4721394  35.5227447  23.3730912  55.5858421
  35.6315374  22.4268627  55.6809711  35.3282642  23.6819792  56.4707136
  83.6058807  42.0835972  67.5038767  83.4247971  42.6066256  68.2848263
  83.2132435  42.5807476  66.7863035  38.2740283  65.5546379  43.6546612
  37.7925897  64.7451305  43.4839392  37.6805234  66.2504244  43.3720493
  28.1813717  45.5081987  64.5140409  27.5850606  44.9808645  63.9824772
  27.6231265  46.1805964  64.9045277  38.6080551  47.3199081   3.1874126
  38.4407544  48.0809212   3.7433818  39.1854024  47.6489019   2.4984530
  44.8736095  56.4286757  10.0770259  44.0228271  56.8624258  10.0117445
  45.2890873  56.8299437  10.8403051  35.4315853  25.7292414  51.8143272
  35.3902173  25.6587076  52.7680254  35.3635430  24.8262334  51.5041971
  42.7438450  55.2860308  29.5928097  42.2695160  54.6721745  30.1535463
  43.6565733  55.2077770  29.8703623  16.2624586  32.5785065  10.7104421
  15.8742929  32.6781011  11.5797174  16.0632586  31.6760635  10.4611468
  44.4675303  14.3299496  30.1655936  43.7792110  14.9896240  30.0802708
  44.9238968  14.3497944  29.3244219  45.2292967   8.2917941  29.0694833
  44.4697714   7.8537560  28.6854506  44.8959541   9.1421866  29.3557477
  71.4591122   6.6432148  47.2797394  70.6071520   6.8671423  46.9052315
  71.3651705   6.8256414  48.2146883   3.5311756  59.1564226  60.6155682
   3.2162622  58.4020948  60.1175213   3.6176738  58.8323212  61.5120649
  85.4344177  58.3365631  19.9043143  85.6061935  57.5640249  20.4427505
  85.2797318  59.0390682  20.5358124  47.0056200  67.6418686   8.2131279
  47.2947311  68.5091972   8.4966576  47.8088045  67.1997070   7.9381263
  41.9419241  68.3489275  12.5135744  42.1437836  67.9942656  13.3794272
  40.9891081  68.4403038  12.5083566  43.0611992   7.5781262  38.3412027
  42.9449749   8.2834810  37.7046514  43.5534286   7.9801512  39.0569687
  18.1451619  40.7445526  36.5931773  17.9060030  39.8251367  36.7102575
  17.6639628  41.0197020  35.8128119  82.6703262  14.9236906  58.4060144
  82.5042057  15.6046093  59.0579224  83.3298206  14.3603015  58.8108635
   5.4640967  47.4408054  38.4602642   5.7789999  48.2831573  38.1323719
   4.8506323  47.6697540  39.1584587  42.9739714   8.2395488   3.9136794
  43.3343410   7.4088472   4.2240030  43.2680082   8.3036423   3.0050173
  39.9287534   4.4757348  21.5121651  39.8785663   5.4306674  21.5547895
  39.9120808   4.1939530  22.4267983  34.5333910  56.5916157  27.4051380
  34.4488263  56.7535782  26.4655375  33.7597346  56.0746193  27.6296473
  28.1844878  34.9814749   4.8821259  28.0732441  35.4755139   4.0698564
  28.7249970  35.5466437   5.4340929  24.4986343  58.8786840  43.9175797
  25.4107165  58.8302374  43.6312389  24.3071365  58.0041122  44.2562294
  25.2424598  55.4953051   7.1153331  24.8539758  55.8877707   7.8971785
  26.1617851  55.7601404   7.1459603  42.9646921  42.6572514   7.8514510
  42.7415228  43.5832357   7.9462230  43.8686848  42.6597404   7.5367779
  43.7766743  60.8525658  16.1962044  44.6926069  60.9567690  15.9384441
  43.2784224  61.1334372  15.4286814  43.1474018  49.0108109   4.6507758
  43.6224174  48.2451963   4.3276271  42.6553631  49.3251276   3.8922668
   6.3731605  69.5599699  18.2357097   6.4124912  68.6225843  18.0459917
   5.5936790  69.6612883  18.7819469  23.4218192  75.3647327  45.7385588
  23.6282730  76.2447023  45.4234934  22.4671221  75.3525686  45.8066559
  46.2156963  47.2235441  27.7141571  46.6270685  47.8424978  27.1109128
  46.4804554  47.5243855  28.5834265  36.8290830  49.3774366  18.5587430
  37.0650101  48.9274025  17.7475464  36.5860891  50.2605629  18.2807529
  11.3974166  51.2119007  51.5238476  10.8419394  51.6537476  50.8816242
  12.1854258  50.9737635  51.0354185  50.5945158   0.9957691  36.4963174
  51.4145517   1.3124578  36.1175370  50.8440924   0.6510910  37.3537207
  71.7508507  36.1739206  52.2421980  72.2660446  35.7359028  52.9196548
  72.4029970  36.5553904  51.6544771  31.1119604  70.0737095  49.0606546
  31.7015648  70.3807068  49.7493839  31.3689494  69.1634655  48.9135122
   8.9971417   8.4907717  44.4703770   9.3098325   8.9719307  43.7042522
   8.0820620   8.2924330  44.2715693  43.1621361  32.1602345  21.7289639
  42.7064657  32.1936369  20.8878446  43.7772942  31.4323711  21.6393661
  44.2114544  16.9380081  44.4778538  45.0798321  17.3182023  44.6105385
  44.1135502  16.8905151  43.5268593  32.1579933  63.3982182  26.8187404
  32.8089714  62.9146433  26.3101959  31.4068365  63.4792042  26.2310028
  40.7348442  16.0729253   2.1426332  41.1665630  16.3215649   1.3253036
  40.3730726  15.2041519   1.9677523  28.3909130  77.8767872  18.2426250
  27.8703523  77.2543192  18.7503469  28.0982327  78.7365103  18.5450208
  79.1679430  75.3146982   4.1065508  78.7137413  74.5407724   3.7734276
  78.4895611  75.9882689   4.1548631  38.8336611  44.0879250   6.6278177
  38.8143516  43.7202072   7.5113583  39.6195602  43.7136030   6.2297261
  47.0676517  14.6517575  33.4864569  47.2904634  14.1398525  32.7089357
  46.1286354  14.8176444  33.4030128  68.3972502  78.3805466  17.3586214
  67.9990578  77.6676989  17.8581429  69.1994381  78.5894537  17.8372455
  38.4726024  23.1444621   2.6643890  38.4966159  22.8253412   1.7622715
  37.9610395  23.9522314   2.6191613   3.6100951  62.0258427  56.6140318
   2.8579181  61.4487171  56.4821672   4.3197373  61.4386749  56.8745565
  37.9900718  65.7876110  34.3739057  38.8756990  65.8447027  34.0152431
  38.0732989  66.1126661  35.2703667   0.6681864  67.9157066   9.0942270
  -0.0292048  68.5526514   9.2497200   0.8252264  67.5185823   9.9508846
  17.6871991  50.5696583  34.0429425  17.2461772  51.3120747  33.6299706
  18.6131620  50.8121824  34.0452337  72.1915245  18.9663148  37.2936702
  73.0859041  19.1254961  37.5952935  72.2603512  18.1885743  36.7399430
  63.7798309   4.0700203  25.7102656  63.8305807   4.3591750  24.7991967
  64.5578051   4.4439998  26.1239362  59.0035343  26.9850636  31.5129590
  58.5285139  26.2652040  31.9281626  58.3407211  27.4425173  30.9956098
  71.4503384   8.8919556   0.9378757  70.8553457   8.2076496   0.6313743
  71.4579725   9.5370620   0.2307609  65.0597954  17.6864660  35.6689620
  64.7222996  18.5812390  35.7102919  65.9709167  17.7866471  35.3931785
  12.4030817  67.6032782  27.2735691  11.5880787  68.0448532  27.0347905
  12.6455641  67.1084166  26.4909172  85.0845337  73.6709833  12.4213743
  84.5734501  74.3118668  11.9271147  85.8955288  74.1294861  12.6411450
   4.2953119  21.4840317  32.8727102   3.7247655  21.7348886  32.1462250
   3.7260303  20.9942937  33.4662652  34.5080614  78.3632660  15.3937912
  33.6499429  78.3850384  14.9702477  34.6257067  77.4484491  15.6497073
  79.8138189  31.1127901  38.5524225  80.0139809  30.6047440  37.7662563
  80.1462078  30.5786514  39.2738438  41.1251354  20.6461763  30.2411842
  42.0202732  20.9642243  30.3586912  41.1548567  20.1421428  29.4279814
  55.2848530  10.5263638  36.1079478  55.9879446  11.0410631  36.5041494
  54.5253658  11.1088181  36.1204219  63.6917448  18.9669502   1.1223337
  62.7650118  18.7273872   1.1232962  64.0039301  18.7197816   1.9927824
  28.3901548  35.9133291  69.7751331  27.5807643  36.4241338  69.7611046
  28.2618928  35.2428436  69.1041422  21.9474506  74.1826344  29.9962640
  21.4816380  73.3465815  29.9800730  21.5772676  74.6772623  29.2651391
  61.1384773  73.1547403   9.2467207  61.6955423  73.8099480   8.8264728
  61.6177654  72.3323917   9.1454589  20.6597257  28.7912059  36.4426470
  21.1683202  29.4198227  36.9549012  20.5382514  29.2165184  35.5937743
  36.4754152  55.7461309  16.4204717  36.5123010  56.0907364  15.5282176
  37.3855853  55.5436230  16.6368318  16.4328921  50.7658386  17.4954641
  15.7280850  51.4046907  17.6019681  16.8470490  51.0022497  16.6655147
  35.6495810   6.9861168   8.7862545  35.1808095   6.5596873   9.5036399
  35.1555538   6.7473543   8.0019313  62.7787590  11.6547835  17.7675843
  62.1523285  11.2155354  17.1923637  63.3975029  10.9682131  18.0165958
   0.5028514  81.1449528  23.2134652   0.6614251  80.2015209  23.2456613
  -0.4507016  81.2279797  23.2221198  81.9145966  18.8627946  38.6456561
  82.5574017  18.2295394  38.3262491  81.1675167  18.3295262  38.9171982
  34.0757036  55.6119680   3.5984462  34.7863722  55.8187771   2.9914767
  33.6671853  54.8282623   3.2308230   7.5465751  52.0948124  19.9406040
   6.9072717  52.0089340  20.6478167   8.3954513  52.0870399  20.3828502
  79.0105534  14.4345880  42.6749849  78.1582212  14.1537368  42.3419905
  79.5841169  14.4186401  41.9088268  81.7508888  48.8159418   1.8225272
  81.1602306  49.4010305   2.2968961  81.2988377  48.6360788   0.9981932
  51.1199093  46.5119171  12.5797904  50.7541084  45.8496141  13.1661189
  51.2110901  47.2920465  13.1268823  86.5390590  60.2906370   1.0263176
  86.5070052  60.8682013   0.2636738  85.6453175  60.2965689   1.3689874
   2.1663068  29.8451543   3.6864656   2.6128590  29.5227575   4.4693345
   2.7406830  29.5947194   2.9628593   9.2042750  28.3242178  10.7490242
   9.5136797  28.9740229  10.1179504   8.3238107  28.6179042  10.9830368
  19.2502201  39.1221452  64.4358110  18.5043705  39.7127819  64.5411205
  19.0145290  38.3457994  64.9437141  39.7762775  75.2822304  67.3433447
  39.0627551  75.5721140  67.9117537  39.3672109  74.6563625  66.7456961
  11.5711415  36.0882425   2.9867336  10.8320463  36.3720703   3.5247046
  11.6125476  35.1408911   3.1172723  84.8581505  53.2425261  20.6206894
  85.5495071  52.7395439  20.1902723  84.8838997  52.9532385  21.5327644
   3.1380156  22.1784377  53.0510473   3.2677490  22.4101758  53.9706659
   3.7548262  21.4633083  52.8949404  16.5305960  26.5133858  22.0687175
  16.3739359  27.0386028  22.8534698  16.0096526  26.9389725  21.3877416
  10.0657809  40.0069666  35.7900548   9.6648693  40.4679251  36.5269542
  10.0240242  39.0824580  36.0345340  75.1118135   6.0854626  62.2419930
  75.0392151   6.2721908  63.1779909  75.0514984   6.9431293  61.8212748
  21.5559387  74.7291946  68.8090658  21.6643286  75.6487942  69.0515995
  22.2303772  74.5748520  68.1475973  23.9700627  37.6680994  43.7147331
  24.6287322  37.4147892  44.3614340  24.1796565  38.5777688  43.5030651
  63.5669708  77.1558094  23.7009525  63.5876846  77.2634697  22.7500510
  62.6868248  76.8280649  23.8857722   6.6437125  35.8415914  24.8907590
   7.1598172  35.2266026  24.3695545   6.6336149  35.4614449  25.7691789
  65.0206852  68.2257938  67.8436899  64.1290045  67.9881668  67.5893927
  65.5663490  67.9170513  67.1203899  31.3603663  43.8682270  24.4498253
  30.5188298  43.7722301  24.0039206  31.7953968  43.0248547  24.3245196
  53.5019684  74.2712259  53.4346437  54.0480042  75.0519609  53.3422613
  53.9828634  73.5862780  52.9700851  65.4158354   0.8510143  10.4684901
  64.9014568   1.6005912  10.7681215  64.7689438   0.1621374  10.3161538
  40.5501699  63.7730932  57.5254250  40.5823469  64.5978165  57.0406246
  41.0236406  63.9539528  58.3374262  37.4062347  46.5836573   9.1944796
  36.8050814  46.9956350   9.8150611  37.1023512  46.8774366   8.3356541
  84.0628242  78.7244177   3.8807297  84.4558907  78.0826855   3.2892004
  83.2335377  78.9581156   3.4637174  10.1785219   8.9109164   1.1888564
  10.7796955   9.1444880   0.4815617   9.3646264   9.3652952   0.9712644
  12.4278307  42.6544666  16.2106514  12.4578094  41.6979074  16.1925983
  13.1476736  42.9057789  16.7893565  64.1231775   9.2205119  44.0452671
  63.4362650   8.7269568  43.5971689  64.7199011   8.5509336  44.3796587
  26.4955044  35.3960252  25.7160759  26.8360496  34.6719432  25.1907516
  26.2217116  36.0502625  25.0732374  41.3608932  39.7370577  20.5710912
  42.0745850  39.2854142  20.1206470  40.5797529  39.5161581  20.0638914
  16.3707817  41.9413996  34.7137666  15.5445635  41.6162395  35.0713515
  16.2850571  42.8943634  34.7411132  13.5731089  25.0414133  11.8415761
  14.4495940  25.3010392  12.1254802  13.6864901  24.1574144  11.4924073
  10.9314537  58.5004759   8.8951045  11.3406253  58.7687206   9.7178161
  11.6247821  58.0409336   8.4214509  85.5271626   4.2378712  21.0108018
  85.0551796   3.4334385  21.2260842  84.9448967   4.9413115  21.2977934
  14.3716168  46.0434723  22.5667596  14.6290827  45.2703333  22.0645666
  13.7281680  45.7171297  23.1958103  28.8962793  65.4253817  57.3354387
  28.1230688  65.9519482  57.1326971  28.9535141  64.7969246  56.6157198
  58.6544275  12.8849232  40.0000858  58.3489180  12.8574657  40.9068108
  59.4049883  13.4786928  40.0181150  81.1164856  18.6071777  14.2176688
  81.2238121  18.5429800  13.2686746  80.1853371  18.7912238  14.3414879
   2.2380403  57.8048229  30.4725122   2.0358771  57.6376772  31.3930702
   2.7667066  58.6026955  30.4844379  17.7973199  32.4476480  26.5609622
  18.0245912  33.3760142  26.6130710  17.7864265  32.1522617  27.4713802
  32.9041481  80.3400421  55.9240627  33.6499071  79.9061632  56.3385773
  33.2792282  80.7897472  55.1668835  41.5505219  49.5078802  31.2214994
  41.8131447  50.3464794  30.8420062  42.0602131  49.4402456  32.0288849
  82.7338791  19.6553159  29.9862170  82.7911758  19.0206218  29.2719960
  83.6446285  19.8477232  30.2092838   1.2923852  75.2550840  25.1020813
   1.7348653  74.5049715  25.4992914   1.8492749  76.0032415  25.3174067
  44.4457483  26.4611578  12.7404773  43.9668989  26.2151575  11.9490123
  45.1014376  25.7720828  12.8476179  16.1255455  69.6662807  46.3962221
  15.3607643  70.0468445  45.9643507  16.6158569  69.2468357  45.6891918
  25.6237793  26.9289732   2.6632065  26.1114717  27.3045611   3.3962280
  25.3856516  27.6823354   2.1228641  12.1999228  37.7416658  36.5962052
  12.3993635  36.8719029  36.2498379  11.2566447  37.7245402  36.7579579
  27.5622845  49.0727329  41.5050459  28.1447887  48.3703279  41.7940855
  26.8030572  48.6189413  41.1391544  44.7689199  15.2935994   0.5229983
  45.2197409  14.9837589   1.3084859  45.3121948  14.9853039  -0.2022875
  11.6998482  52.4282360  25.6268072  12.1123075  52.1180105  24.8206615
  12.2869873  53.1124449  25.9483027  11.2524760  29.0121818  12.8659356
  10.5515265  28.9064956  12.2227144  10.8458173  28.7866044  13.7025809
  69.8998117   4.5610553  49.1901159  69.8039865   5.5010885  49.0371895
  70.0951719   4.1966417  48.3268261   4.0380239  22.1011591  39.2451906
   4.8409978  21.7589450  38.8523102   4.3379214  22.6100540  39.9983931
  56.3656950  54.1497517  52.5008059  55.9592438  53.5815907  53.1551981
  56.8680239  53.5538578  51.9450998  81.3894081  68.7122297   7.6698530
  81.0237312  69.4364738   8.1777716  81.0583591  67.9251480   8.1024504
  36.7625022  80.9960651  42.2935104  37.6965117  81.1808109  42.3921251
  36.6109157  80.2277279  42.8438854  24.9082589  45.0498009  15.4487574
  24.7884417  44.1800165  15.0675058  25.5379462  44.9161196  16.1571753
   3.4451872  57.6409674  15.1402926   3.7383038  58.1265306  15.9113586
   3.9294392  56.8161678  15.1782787  73.3008862  59.2508173   9.8804277
  73.3967018  58.4181643   9.4181007  73.3442688  59.0164089  10.8074677
  27.9739785  25.0808859  14.1060042  27.3174548  24.3898082  14.0187132
  27.5996089  25.8273697  13.6381972  75.0692320  78.3289289  10.0683403
  75.2774715  78.8290644   9.2792052  75.0975323  78.9738750  10.7750797
  73.7176228  53.5584354   9.8993593  72.9827404  52.9849863   9.6817994
  73.3694935  54.4439554   9.7949803  13.5314178  23.1354880  18.5688424
  13.4524298  22.5215745  19.2989826  13.2356000  22.6392794  17.8056252
  26.6261292  50.6797409  31.7486811  25.7118273  50.9482670  31.8391228
  26.6165709  49.7372437  31.9155097  25.1642513  51.2346315   6.5760565
  26.0938907  51.0585260   6.4311767  25.1419878  52.1197987   6.9396669
  80.7751751  80.5508327  45.7474089  80.9284687  79.9821281  46.5019417
  81.4168453  80.2645016  45.0973988  21.0224342  15.9320843   9.2768580
  21.2906981  16.8468523   9.3632591  21.1568022  15.7295024   8.3510405
  15.2047205   4.2966244  19.6812665  15.7927024   3.9243796  20.3384900
  15.3223479   3.7396529  18.9117348  46.4906597  57.8936481  43.5901833
  45.8332825  57.2068405  43.7014627  47.3136377  57.4201059  43.4689808
  52.5241137  53.3973360  24.1259861  52.1575451  52.6547384  23.6459780
  53.4718752  53.2911730  24.0440631   1.0277259  40.7240629  68.8431740
   0.9932043  41.0088587  69.7563744   0.5896048  39.8730183  68.8409758
  47.7497101  64.0694809  68.9696789  47.2343302  63.6110401  69.6333408
  48.5995102  63.6290693  68.9799356  38.4528232  13.7784994  31.6612554
  38.3392215  14.5314074  32.2413039  37.6888561  13.8026381  31.0850573
  45.6808853  51.8136168  22.0808053  45.8115244  51.5662336  22.9962111
  45.1922655  51.0825920  21.7025352  19.1922355  38.7574410  39.7891974
  19.1077828  38.5810423  40.7262039  19.8325598  39.4669247  39.7358036
  51.0277128  21.4830661  21.4030337  50.6327200  20.6146121  21.4804888
  50.4019117  22.0695853  21.8280029  78.0470848  31.4483404  16.5722895
  77.7456379  31.0184908  17.3726583  78.5542822  32.1994328  16.8802583
  59.2903805  78.2524300  60.3640270  58.8523626  77.6807928  59.7334719
  58.8431215  78.0818558  61.1929417  69.0703058  19.9229980  67.2003222
  68.9410543  20.8706498  67.2387838  68.1844425  19.5604253  67.1959496
  53.5150766  53.0370235  68.6720848  54.3994522  53.0785751  68.3082342
  53.0560684  53.7749243  68.2707834  75.3293037  30.8109689  21.0234451
  75.6816959  30.1125526  21.5750504  75.3095150  31.5795636  21.5936232
  63.7975550  72.0186806  62.5184059  64.3186235  72.7723503  62.7953577
  64.3578815  71.2626791  62.6936817  51.3105011  33.5494661   4.7102612
  50.6665707  33.3853102   5.3991997  51.7971992  34.3153429   5.0148773
  63.6845350  75.8375978   3.8748604  64.1038799  75.1017618   4.3208763
  62.9540014  75.4437637   3.3979419  79.6406841   9.9720061  51.5163422
  79.3078470   9.8504233  50.6271458  80.4309082  10.5008006  51.4060783
  14.5470428  53.5625076  10.6371856  13.6207056  53.3285856  10.6956184
  14.8202598  53.6876440  11.5459895  86.3012655  20.9752584  64.5186663
  87.2297951  20.7494736  64.5742178  85.9150261  20.5965638  65.3083754
  29.7943282  72.6798344  19.6397257  30.1320243  73.2620716  18.9591455
  30.2631521  72.9407406  20.4324198  76.9175529  44.4789076  41.3340664
  76.7107153  45.4122257  41.3827801  77.8585148  44.4508410  41.1607838
  56.7611408  66.5319777  66.5461063  56.1548185  65.8267689  66.7725801
  56.2414837  67.3312855  66.6315031  24.5327687  31.2502146  16.3706458
  24.1926169  30.6151915  15.7403469  24.6542716  32.0515752  15.8614421
  24.4858003  30.0781131  19.2902946  24.3513346  30.2195096  18.3531940
  25.2105355  29.4545555  19.3368649  34.9654746  37.8299856  40.2717209
  34.0644813  37.9647803  39.9779987  35.0013328  36.9057322  40.5181026
  79.6021366  19.1697097  51.2581635  79.9164963  18.6960721  52.0282793
  79.6899652  20.0935411  51.4927912  85.8600998  37.3522353  34.4659209
  85.2959156  36.5960717  34.6276093  86.7302704  37.0654202  34.7429919
  25.5251145  28.2406139  16.0650063  25.7345843  28.1982040  15.1319706
  26.2665033  27.8158617  16.4964700  35.7629275  28.0039096  35.6049418
  34.9634790  28.4721828  35.8454275  36.3692093  28.6912107  35.3287697
  54.9693632  49.4710207  16.9112408  54.2590666  49.7750235  16.3461864
  55.0065374  50.1161957  17.6173568  13.5442066  36.9358063  17.0697427
  14.4673872  36.7915916  16.8619668  13.2238197  37.4946475  16.3617301
   8.7573957  21.3633609   1.9263737   8.2886714  22.1979427   1.9267203
   8.5593218  20.9777689   1.0729578  81.6794682  18.5794330  43.8126612
  82.6282597  18.4741211  43.8830042  81.4429283  18.0963957  43.0208540
  76.4616299  31.2316155  30.3543735  76.5759993  31.9247651  31.0045242
  75.5680084  31.3502169  30.0324988  32.6645637  53.8576603  12.7273190
  31.7764950  54.1485786  12.9345214  32.9341793  53.3483028  13.4915793
   6.2495106  47.9701185  27.5605273   6.6752762  48.7421370  27.1877766
   5.4144901  47.9096270  27.0965075   2.9909471  52.9227924  30.4161263
   2.2487727  52.6153183  30.9365773   3.3580944  52.1278238  30.0295305
  10.1944911  60.7789850  23.9322901   9.6628541  61.1890173  23.2500386
  10.6063735  60.0318193  23.4983230  21.7310238  31.0003328  19.6766686
  22.5509572  30.9723473  19.1835558  21.6883326  31.8928337  20.0199580
  12.9164910  37.6600838  14.5704603  12.2473383  38.0459976  14.0051842
  13.1477594  36.8368745  14.1402602  35.1384401  48.2688713  33.8745713
  34.4029164  47.8641558  34.3343949  35.0663614  47.9458714  32.9764009
  72.8527689  27.3794079  59.6616220  73.1616926  27.9552817  58.9622164
  72.4700069  27.9721761  60.3084230  32.2767138  26.1260009  60.8171892
  32.7172565  26.9249511  61.1067343  32.9499483  25.6406522  60.3403044
  83.3827019  20.9709835  25.1059294  84.1424561  21.0730243  25.6791639
  83.7121868  20.4727197  24.3579936  59.1739511  54.3114901  67.4026966
  60.1262093  54.2822170  67.4953127  59.0263987  54.8194838  66.6049480
  52.2229385   3.8367784  56.2613678  52.0338106   4.3239269  55.4593992
  51.8148375   4.3525803  56.9568014  69.2500067  27.3399019  51.4583111
  70.0323534  26.8809605  51.7641544  68.9835358  26.8618631  50.6730080
  64.5429993  43.9476967  20.8524752  63.9087868  43.2307863  20.8593202
  64.2549086  44.5290661  21.5562105  41.5254879  77.5602531  33.9019442
  40.7724571  77.1135855  33.5150838  41.2097025  78.4444141  34.0883994
  15.9483016  29.8854017   9.2864704  15.5064726  29.5653868   8.4999537
  15.6521237  29.2992377   9.9828345  20.6937551  72.9616117  12.2974002
  21.2375164  72.7512264  11.5382612  21.1178350  73.7236500  12.6919746
  49.2451906  62.1225357  25.5271363  49.6465254  61.6950846  24.7705388
  48.4256506  62.4849892  25.1906538  25.8447051  69.2664957  12.5112653
  26.4193153  69.8987246  12.0795918  26.0353279  69.3673754  13.4438527
  83.7849808  19.5821393  12.5766361  83.8777637  20.4986453  12.8367114
  83.2517624  19.6113944  11.7822504  19.5195138  80.9106636  66.7613029
  20.4283500  81.0752773  67.0125961  19.4767904  79.9644232  66.6233492
  45.3976297  40.7287025  41.2124491  45.9335089  41.3122702  41.7495823
  44.7118711  40.4203367  41.8048000  12.9067385  73.8832331  40.8913136
  12.1258485  73.5124445  41.3023615  12.9585373  74.7746754  41.2361002
  19.1320646  58.7039757  31.5167999  18.8488793  58.2233667  32.2946501
  20.0283456  58.9748096  31.7157054  79.4261503  72.4102545  11.1203897
  80.0583076  73.0197334  10.7394040  79.6970844  72.3244476  12.0344269
  36.5875459  78.4044409   2.1312489  36.4160776  79.1723394   2.6763776
  37.2474313  78.6988831   1.5034857  50.5546856  55.6248951  11.2570679
  50.5925465  56.4939737  11.6564453  49.8129845  55.1968718  11.6847467
  33.6424303   5.5894554  59.9388218  34.3240285   5.9770256  59.3897772
  34.1156173   5.0056702  60.5317116  85.5034733  15.1627505  69.4269323
  85.1609325  14.6769452  70.1771975  85.5216599  16.0739112  69.7196531
  39.7444057  66.0634136  36.9009066  39.9287009  66.6839933  36.1958218
  39.4919753  66.6124058  37.6432800  32.9981709  37.6384616  16.9365454
  33.0468082  36.8767071  16.3589668  32.1750069  38.0660176  16.7002678
  26.6169286  64.2060471   4.2593032  27.3877001  63.6406136   4.2100430
  26.0280108  63.7559605   4.8649684  46.7690754   1.5064012  19.6129203
  47.2573566   0.7695068  19.9800706  46.6305780   1.2689236  18.6960471
  35.8751488  66.9343233  51.7465305  34.9838567  67.2766399  51.6783333
  35.9728575  66.7030239  52.6702118  50.7070494  65.3293037  59.7306204
  49.9930286  65.2943516  60.3671646  50.4185772  65.9715557  59.0821409
  32.4545169  71.2996864  51.0870934  33.4076214  71.2599039  51.1660957
  32.1939158  72.0021486  51.6827965  19.1325927  52.8463554  48.3850527
  20.0814819  52.9637527  48.4304285  18.8841009  53.2274675  47.5428915
  81.4071560  71.2834835  69.3087339  81.5860462  71.3914156  70.2428532
  80.6382942  71.8303442  69.1473579  40.6982470  45.4278564  35.3207970
  40.2812099  44.5666218  35.2965903  41.2326479  45.4129696  36.1147881
  79.7974777  59.7855282  69.1204453  80.6720448  59.4829702  69.3650436
  79.2343521  59.0230036  69.2533970  13.7568486  34.4183493  56.3444996
  14.1560578  34.0958786  57.1525097  13.8780653  35.3671956  56.3795567
  17.9006994  27.3373199  36.0506988  17.6150751  27.6656103  36.9032693
  18.7550533  27.7456522  35.9107852  76.2534855  21.6251184  70.6986985
  76.3012276  22.5663473  70.8661511  76.1124967  21.5566875  69.7544150
  72.4342060  19.4458044  17.1747577  72.8857327  20.0259829  17.7877390
  72.1487665  20.0219631  16.4656770   0.7675110   4.3383095  57.1602201
   0.6495598   4.4727618  58.1005621   0.0264695   4.7919506  56.7585993
  30.8403468  40.3230286  32.8520846  30.6984043  39.6813011  33.5479808
  31.7897916  40.4417515  32.8257823  34.0209317  40.8234882  15.3929603
  33.8534975  40.3972673  16.2335145  34.0342426  41.7585897  15.5970263
  18.9656913  40.6308556  55.6345749  19.7044122  40.0830317  55.8999252
  19.3588233  41.3202429  55.0993872   1.9743505  24.7727990  59.8206520
   2.0803399  25.7224870  59.8762417   2.2042686  24.4546318  60.6936598
  33.4471083  51.1525917  38.4018540  33.4538817  51.7035818  39.1845417
  34.3370938  51.2175226  38.0555296  29.8630929  61.1752892  20.2631545
  29.8251700  60.2382994  20.0712109  29.9166322  61.2222624  21.2177014
  15.5588901  54.1787434   2.3913063  14.9261343  54.8735905   2.5730902
  16.3408816  54.6401787   2.0883270  85.8343601  45.5436325  27.2323537
  86.7170620  45.8955765  27.3473287  85.2569103  46.2931299  27.3773742
  49.2085695  66.6564226  65.0431299  50.0438881  66.2207603  64.8738003
  48.7120390  66.0272455  65.5664158  16.2188101  13.7988544  30.1060200
  16.5921724  14.0338409  30.9554982  16.7473602  13.0582726  29.8086905
  67.9412746  56.8995857  37.7811575  67.2464085  56.3821077  37.3742080
  68.7174749  56.7166901  37.2517300  66.6060400  15.0856173  66.3229895
  66.1046553  15.4355133  65.5865049  66.2931967  14.1861975  66.4199591
  33.1592727  52.2650337  30.9693336  33.5895371  51.7315626  30.3011179
  33.1513667  51.7108679  31.7497587  72.6270676  30.9639335   7.1349782
  72.9774809  31.4210868   7.8994727  71.6789007  31.0764837   7.2023886
  36.1863017  30.8352804  34.8139119  35.9082675  31.5933466  35.3279781
  37.0005417  31.1151171  34.3956590  21.3630486  75.1736832  57.0089626
  22.1824312  75.5338621  57.3482466  21.0241914  75.8550262  56.4282894
  41.0743523  37.2978592  38.7727880  40.7371998  37.0102262  39.6212125
  40.8313274  38.2221508  38.7193465  77.9420233  10.2811897  49.3085766
  77.7206707  10.1775062  48.3831120  77.7869415  11.2082481  49.4895315
  63.2949352  30.8559084  59.5925665  63.9338207  31.5059686  59.8849344
  62.5788498  31.3729453  59.2236137  37.7729368  30.6887555  37.7801847
  37.2178698  31.4118648  38.0721498  37.6435089  30.0064015  38.4388757
  71.1051798  70.4269171  59.6307659  70.6387329  70.1469278  58.8431978
  70.4231453  70.5059433  60.2977133  24.3961644  63.3560658  14.6036732
  23.4625006  63.2905293  14.4031465  24.4491982  63.2091475  15.5480433
   6.8938214  37.7373528   7.6452708   6.9131893  36.8159127   7.3868066
   6.5389580  37.7293491   8.5342252   0.5559874  43.4353399  21.0974574
   1.3445622  42.9610682  20.8339262   0.3236408  43.9586401  20.3303838
  81.0676098  37.4048400   5.2075762  80.5422878  37.5191092   5.9995401
  80.5842400  36.7605257   4.6904278  81.0342979   1.0079096  56.0278130
  80.3519154   1.6770163  55.9741879  80.9159374   0.6138164  56.8920517
  42.8850240  21.4031316  70.4028910  43.6453360  21.4564087  70.9819578
  43.1737727  20.8474304  69.6789766  27.4111271  30.4375052   4.3939602
  27.1030021  30.2582312   3.5056186  26.7911577  31.0809636   4.7372225
  60.4421616  63.6470318  14.9127269  60.4126167  63.3849239  15.8328664
  59.5621729  63.4644556  14.5833039  41.0237789  36.1210394  27.0619798
  41.0730696  35.8503819  26.1451674  40.9437418  37.0742202  27.0263481
  53.3814764  58.7555647  55.9588051  53.0073261  57.9952288  55.5136824
  53.9280701  59.1765547  55.2953005  73.1497335  33.2273674  33.5156727
  73.2716894  32.4960947  34.1211462  72.7228594  33.9043903  34.0406966
  74.4433975  56.7601633  12.1709895  74.3885565  56.4406157  13.0716085
  75.3559446  56.6157103  11.9207454  76.5299034  45.0395203   9.1840988
  76.7095375  45.1714373  10.1149905  76.4315653  44.0919399   9.0910780
  79.6958494  35.0083280  64.0840149  80.5388832  34.5884275  63.9131069
  79.2181158  34.3764615  64.6213675  70.4829264   7.4338418  49.9484825
  71.0989618   8.1036884  50.2451992  70.5082417   6.7651349  50.6328964
  59.6902990  47.9414225  28.4326649  60.6457233  47.8933954  28.4656501
  59.4312763  48.1744194  29.3242097  37.4967098  78.9770269   8.9302319
  36.9527960  79.3989277   9.5953578  37.2086096  78.0642128   8.9289576
  60.1482105   1.8854485  42.8327703  61.0061312   1.6262139  42.4966145
  60.2104855   1.7498565  43.7782717  32.0343900  79.5584869  23.9479494
  32.1774936  80.0661659  24.7467089  31.0823512  79.4940186  23.8724685
  20.1069665  61.7272282  32.5683427  20.1176500  62.6685667  32.7415419
  19.3762529  61.6034317  31.9625688  74.0651178  78.7099838  31.8741035
  74.8440361  78.2025290  31.6460514  73.3712339  78.0566645  31.9631648
  19.7505760  54.1503096  35.9051156  19.8884141  54.1301680  36.8521261
  18.8358414  54.4126177  35.8017468  40.5002260  44.6523809  65.9918356
  41.1014557  43.9737892  66.2988758  39.7592854  44.6071911  66.5961504
  67.0349360  24.8480058  18.9154744  67.8824139  24.6160197  19.2952001
  66.9659662  24.3021750  18.1321824   3.0954975  56.6234350  38.6358118
   3.7602842  56.0444450  38.2629037   3.3476105  57.4985933  38.3412480
  50.0912762  59.1359520  21.6922474  50.3936529  58.2633638  21.9440293
  50.5027199  59.2962074  20.8429742  33.3380079  40.5882692  30.4304075
  33.2011580  39.6409106  30.4263449  34.2292166  40.7029438  30.1005149
  83.2015610  55.7028770  12.3665929  83.6608315  55.2346945  13.0638063
  83.4463787  55.2397203  11.5654838  38.3124661  63.3296585   9.3156779
  37.8813267  63.0302429  10.1161158  37.6665187  63.1799555   8.6253345
  80.1225281  32.3057294  49.3871737  80.2827549  31.3960123  49.6381140
  79.1953611  32.4471927  49.5784092  50.8613300  74.3021297  18.7605059
  51.7423391  74.6102333  18.9729357  50.4571009  75.0345850  18.2953858
  44.4880390  17.7287734   6.9601452  44.2443800  16.9741523   6.4240408
  43.6527967  18.1074107   7.2344357  62.2261333  12.4282730  52.9593515
  62.4287510  11.5026283  53.0948400  62.9217434  12.7437711  52.3824453
  66.5084457   2.7090147  69.7577572  65.9424448   3.3937383  70.1141691
  67.2613811   3.1814408  69.4026041  70.2962017  66.1312389  27.9019523
  70.1438904  66.1347771  26.9569540  70.5729723  67.0251560  28.1032944
  18.9451933  13.6657190   0.0184815  18.8727427  14.6149683  -0.0810639
  19.2005312  13.5395229   0.9323244  27.3710513  80.1395798  24.3277121
  27.3783994  80.7452393  23.5865283  26.6416740  80.4360771  24.8720789
  21.1919975  73.0650568  41.9383097  21.4620996  72.3123407  42.4643326
  20.3025007  72.8528166  41.6555023  10.7105732   2.7073684   1.6090104
  10.7362545   2.7519077   0.6531922  11.2269831   3.4597981   1.8978052
  78.6093283  61.8645430  68.2608080  79.0789175  61.1260843  68.6486149
  77.7184629  61.5397787  68.1299448  31.6067457  45.5189276  34.6590567
  31.4259458  44.6632719  34.2699647  30.7519937  45.9475422  34.7028828
  29.9420571  42.4812031  19.6761453  29.1992736  42.6381683  19.0931654
  30.5753708  42.0092344  19.1354108   8.1311768  30.5412412  67.0461559
   8.9069796  30.3352094  66.5247011   7.4917972  29.8733568  66.7984486
  30.4398799  24.8856330  39.5884871  30.4089761  24.9510431  40.5429506
  31.3699293  24.9566054  39.3735361  51.7604113  58.1974316  33.0554271
  52.3812389  58.6735868  32.5039887  51.8654633  57.2813749  32.7984571
  67.7879333  71.2564135  52.0792150  66.9137573  70.9979439  51.7872572
  68.0147648  70.6153250  52.7528524  18.9975691  68.1593084  21.6309190
  18.6686754  67.9249716  22.4987578  18.2135034  68.2152891  21.0847139
  22.4227691  72.2246790  26.5240836  21.8698263  71.4696884  26.7252707
  23.3064628  71.8631029  26.4564085  45.9802151  73.6828327  43.4374905
  45.4078865  74.2354298  43.9697599  46.8213081  73.6992311  43.8941336
  50.9296322  50.1324511  58.5082579  50.7799721  50.6716681  57.7316761
  50.0684404  50.0611973  58.9199638  37.6844621  60.0858068  38.2658839
  38.4133434  60.2786732  38.8556004  37.9218841  59.2541981  37.8556514
   3.7313467  16.2998283  64.5376396   2.7860224  16.1841726  64.4416332
   3.9092907  16.0704803  65.4497623  18.4025252  61.9804668  17.1492529
  19.2341781  62.3926926  16.9154668  17.7484810  62.4504852  16.6320062
  81.2788486  38.1300640  68.4368849  82.1090603  37.6702905  68.5617781
  80.7114124  37.4881411  68.0100632  48.7372780  75.7954836  43.7453318
  48.5389805  75.4967546  42.8578234  48.3972406  75.1034784  44.3125486
  52.4007082  28.1610537  17.1461236  51.9202805  28.9840817  17.2358012
  53.2716846  28.4233856  16.8480980  64.0038919  28.3061767   3.4971857
  63.7772989  28.7334585   2.6711607  64.6801567  27.6713252   3.2608300
  28.7561870  16.2570190  59.0898657  27.8051853  16.1619639  59.1427279
  29.0546894  15.4496419  58.6712122   4.8686561  66.1930466   2.8188428
   4.2718446  66.1336184   2.0728426   5.1814073  67.0975876   2.8038988
  59.5127726   5.8681345   8.0242991  60.2316713   5.2400690   7.9539561
  59.9168158   6.6545588   8.3910686  64.2124510  35.1585650  62.5777054
  63.6349726  35.8601642  62.8785563  64.8573542  35.0621271  63.2784414
  27.9763126  61.6365194  10.8487308  27.6799560  61.2444067  11.6701019
  27.6552343  62.5375748  10.8839202  49.9594498  44.2596483   3.1324041
  49.1497326  43.7505198   3.1695703  49.7431707  45.0855160   3.5652992
  43.3913469  47.7444839  27.5185680  44.2865276  47.4416685  27.3663116
  43.1586504  47.3835564  28.3740306  61.4280033  40.4748392  10.8452892
  61.3224030  41.4198971  10.9545887  60.5345964  40.1425123  10.7580292
   1.9046713  44.9737740  52.6469612   2.4924535  45.2691650  53.3422947
   1.3241598  44.3446350  53.0752420   9.0463847  35.9269023  16.0115719
   9.6748447  35.8206964  15.2974355   8.2164800  36.1167622  15.5740285
  28.9759707  44.4366074  29.3660402  29.7670150  44.8166609  29.7481918
  28.8972116  44.8579073  28.5101604   8.6264241  57.9152918  16.1201596
   9.1607386  58.6359835  15.7864761   8.8313848  57.8777885  17.0544064
  44.1981077  75.1433277  12.7095592  43.5673761  75.4568434  13.3577228
  44.2788601  75.8646441  12.0855296   8.0774790  44.7261810  13.4120703
   7.1574444  44.6054077  13.1771636   8.0846614  45.5148840  13.9544058
  45.8843279  44.9105453  12.1756732  45.4945040  44.0715790  12.4214435
  45.1377439  45.4625368  11.9429708   5.0718230  27.6258850  45.3343916
   4.4758683  28.3574891  45.4951000   4.8186332  26.9647551  45.9786224
  46.4643478  69.7334099   4.3927017  46.0048914  70.4934072   4.7498220
  47.0277071  69.4365215   5.1073432  72.9587746  34.1198635  60.0369501
  72.2929716  34.6166515  60.5124903  73.7906790  34.4862938  60.3367853
  39.7763443  47.4168587  12.2327065  39.8662019  47.8882933  11.4045131
  39.6740675  48.1050014  12.8901458  33.5041499  63.0845356   6.3042587
  33.4827733  64.0262413   6.4744502  32.7967668  62.7279234   6.8415374
  34.6064782  23.0620956  28.0328345  35.1971078  23.5004115  28.6454248
  34.9389100  22.1660829  27.9791784  63.6736727  55.6134939  12.0406079
  62.7178383  55.6159210  12.0916998  63.9018297  54.7005892  11.8651640
  32.4831700  22.2972775  66.3150406  32.1805239  22.4025059  67.2170210
  33.3820105  21.9791985  66.3995695  27.9960585  33.1995463  38.1455588
  28.7769079  32.9659271  37.6436353  27.6220012  33.9438105  37.6739812
   7.3926115  55.6265354  12.9898739   7.8939611  55.5388403  13.8005459
   6.8874472  54.8155737  12.9317558  21.2469745  69.7825003  47.7139902
  20.4081941  70.1701164  47.9638529  21.4728761  69.2082071  48.4456968
  37.6357388  45.4408598  18.5641074  37.1346116  46.0572958  18.0301499
  38.1097579  44.9041128  17.9289389  19.3265712  39.9635720   5.8324969
  19.8631310  39.3509912   6.3355678  18.7697899  39.4048309   5.2902484
  38.6233473  20.1038766  52.7319860  39.3743730  20.2212048  52.1502447
  37.8768134  20.4269624  52.2274733  44.9975204   6.1662900  22.6549554
  45.1618671   5.2254099  22.7179360  45.3190851   6.4079863  21.7863894
   2.8275737  45.1785898   9.2006105   2.9042161  45.3582144   8.2635438
   3.7015948  44.8879051   9.4610339  27.0871425  25.3482175  38.2318997
  27.8785396  24.9588871  38.6038423  27.4101710  25.9792018  37.5886703
  12.9430568  53.6363935  61.4302492  12.6440179  53.4258318  60.5456781
  13.6597133  53.0231237  61.5931368  30.6836081  63.2259274  41.8103123
  30.0501895  62.8100920  42.3951960  30.1837039  63.4253931  41.0187674
  78.3476400  23.2827067  49.2118311  77.6755810  23.9638758  49.1877508
  77.8588390  22.4618077  49.1532755  82.4273014   4.5717543  50.1270914
  82.4089909   3.8057977  49.5533276  82.0005512   5.2617610  49.6191502
  49.6380997  58.7579536  26.5334487  49.2155695  57.9089165  26.4036870
  48.9412785  59.3240118  26.8654943  32.3557711  49.2005730   0.6579920
  31.7773509  49.7433472   0.1222137  31.7656398  48.6044073   1.1190416
  42.1874762  67.1318626  20.1602912  42.6574183  67.8068924  19.6706760
  42.7583265  66.3646412  20.1186800  52.1883392   1.3001725  21.0655785
  51.9856739   2.2202609  21.2346816  53.0894566   1.3087976  20.7428694
  55.7190943  70.6099510  18.5791063  55.4345417  70.2614307  19.4239688
  55.1558590  70.1752901  17.9387403   3.1393448  74.2608976   2.8840312
   2.8661457  74.1633940   1.9718431   2.9184446  75.1657152   3.1048048
  22.2091746  75.3525496  37.7863288  22.3800898  75.1710129  36.8621731
  21.4648843  74.7924900  38.0067730   1.9057621  80.6111050  12.6377833
   2.2991866  81.4004993  13.0096781   1.9887528  80.7253361  11.6910541
  78.1277704  79.7644186  45.7305765  79.0430450  79.9507427  45.5213070
  77.9988861  78.8570070  45.4544973  78.8116407  17.2132897  27.8383231
  78.2916451  17.0112658  27.0604897  78.4660912  18.0510664  28.1464767
  61.6996384  12.3770678   7.4477619  61.3214064  12.6510727   8.2832813
  61.9006777  13.1964695   6.9956571  41.0196018  34.0786457  33.3863568
  41.2233686  35.0087714  33.2885051  41.4652300  33.8193798  34.1928482
  59.0644360  65.0432014  49.0550327  59.9030399  64.5871878  49.1259050
  58.7014627  65.0160408  49.9403286  72.7706289  49.8245668  11.5454590
  72.3529196  48.9633512  11.5374410  72.2537565  50.3356695  12.1682358
  32.2381115  53.3597136  18.3976722  31.7284584  53.1710815  17.6096964
  32.7402759  52.5601864  18.5552216  22.9814100  79.6954489  25.3812718
  22.9633856  78.9095449  24.8351455  23.1938457  80.4042435  24.7740579
  52.9582739   2.2739568  18.3608782  52.1470261   2.6576018  18.6939418
  52.6716185   1.6455194  17.6982117  69.1681671  29.2457008  58.6020041
  69.7577620  29.7000647  58.0002022  68.9020824  28.4580612  58.1275988
  73.8210535  36.2749386  17.9666471  74.5664692  36.8605924  17.8339970
  74.2157316  35.4300308  18.1825042  84.8147202   5.6393546  63.2214499
  84.2756653   5.8393085  63.9867449  85.2548695   4.8195773  63.4460974
  30.8543992  70.7196188   1.4977697  30.8328462  71.2624121   2.2858974
  31.6649938  70.2165127   1.5755396   2.0754717  47.4519491  37.5069952
   1.1709144  47.6495075  37.2641397   2.5780112  47.6100206  36.7078090
  81.3693428  24.9223542  51.4459372  82.1019650  25.3071260  50.9648466
  81.1673546  24.1165590  50.9704113  42.9896069  73.5008621  54.2798710
  42.8190041  72.5590992  54.2654371  43.7243700  73.6204147  53.6781549
  27.5475454  11.6495407   0.3426794  26.9783306  12.1566319  -0.2361856
  28.4308743  11.8100142   0.0107048  14.1921580  26.9039345  65.1297712
  14.6929264  26.6030049  64.3715477  13.9372015  27.7995753  64.9082804
  64.3153381  78.1646442   6.7411274  64.3256998  78.4272432   7.6615429
  65.2367449  78.1641197   6.4818192  35.8094668  70.5298901  52.7071047
  36.6238594  70.9363556  52.4108171  35.4583311  70.1006746  51.9269037
  48.5378599  71.4514303  27.0324254  48.1980324  71.5059853  27.9256058
  48.8912392  72.3235273  26.8569303  36.9743443   6.4944792  19.4593346
  37.0264745   5.7786614  20.0926733  36.2885737   7.0677924  19.8017693
  74.9928761  17.7356136  62.2429276  74.9792480  18.3378494  62.9868078
  75.1800728  18.2925498  61.4872742  37.4801302  11.4102304  51.5924501
  38.2115483  11.8463385  51.1553335  36.6993427  11.8095410  51.2088394
  38.7985778  11.9012260  48.5607100  38.9613724  11.1064363  49.0686798
  38.6521387  11.5889966  47.6677895  68.9375257  79.8551941   7.1518207
  68.8656902  79.8985100   6.1983037  69.5414352  79.1304302   7.3138362
  34.2589235   7.0728797  46.0036325  34.3388748   7.7131546  46.7106581
  34.1876602   7.6014310  45.2087784  14.8889554  71.8733692   3.4228304
  14.4910085  72.2186422   4.2219910  15.4080498  72.6009083   3.0801108
  15.3868198  52.9072428  47.6267910  16.1881971  53.4268570  47.6902676
  15.5297220  52.3380184  46.8706226  81.9689655   9.6877897  45.9930515
  81.5345383   9.7430462  45.1419020  82.8286552   9.3140990  45.7993603
  49.6846437  61.0366869   0.9239244  50.5488729  61.3165569   0.6222522
  49.0825844  61.3482094   0.2481186  68.8630056  77.9522085  62.6344585
  69.5717907  77.5197601  63.1107426  68.9388180  77.6210356  61.7395830
  44.9090815  60.5312157  20.9305453  45.7247734  60.2187204  20.5391073
  44.3557930  60.7571983  20.1828575  46.0662842  72.0688820  16.6650879
  46.2689495  72.7640152  17.2911406  45.2877283  72.3812389  16.2040925
   0.3391006  10.4152012  37.4952269   1.2077450  10.2216780  37.1427536
   0.4235113  11.2906229  37.8730392  57.3403645  12.0843577  56.8131876
  58.1487703  11.8836486  57.2848082  57.0355749  11.2369180  56.4888716
  54.7102022  60.5710459   9.4992524  55.5536842  60.6214523   9.9489546
  54.1057301  61.0454273  10.0700498  31.1736417  41.2777376  17.3748577
  31.4749575  41.5839672  16.5194845  31.0393500  40.3371334  17.2588301
  74.7739220  40.7924604  60.5865574  74.9403191  41.1755180  59.7252703
  75.0307655  41.4754152  61.2061024  25.8413482  53.3456755   9.0177524
  25.5174613  52.4656773   9.2099279  25.0628924  53.9012814   9.0569806
  45.4035616  19.3809330  21.4297700  45.3656769  18.4660912  21.1507320
  46.0630846  19.7777784  20.8607602  44.7068882  68.7476397   6.7509431
  45.4384661  68.1966543   7.0292199  44.4485664  68.3914137   5.9008813
  31.4369750  57.8502750   6.6625047  31.6020513  57.7181578   5.7289487
  30.7515049  58.5177088   6.6924202  65.7868433  58.7128639  46.8796587
  66.1833811  59.5528650  47.1107292  65.4494381  58.3714104  47.7077913
  14.5040822  73.1716585  65.4868937  15.3795469  73.0420732  65.1221991
  14.6367311  73.7717295  66.2207508  19.0267873  23.4128094  56.3660908
  19.7258532  24.0177846  56.1180067  18.4591639  23.3740973  55.5963230
  67.4208736  45.7698250   4.3150353  67.4778748  46.3090277   3.5262096
  68.0240011  45.0443459   4.1533524  36.2811875  75.7409573   2.8490838
  35.6512165  75.4294205   2.1992281  36.4506698  76.6499949   2.6017851
  23.1987929  37.1991777  12.0905411  22.9692411  37.8403568  12.7631688
  23.8377810  37.6496983  11.5383124  42.6574898  64.9237776  36.1831522
  43.1718731  65.6459713  35.8224869  42.0899725  65.3358555  36.8345714
  23.2791209  38.7623572  23.2168651  23.2256079  39.1836143  24.0747190
  23.9396334  38.0783343  23.3267164  42.1706152  73.6493492  11.3848150
  42.2577000  73.3973551  10.4654980  42.9939651  74.0919113  11.5908813
  67.6035976  77.4568844  69.2347670  68.3593941  77.9183626  69.5981455
  67.7827215  77.4060440  68.2958508   7.7470678  50.5112600  54.5367432
   7.3236251  50.9244585  55.2892017   8.4797233  51.0902405  54.3264246
  67.6766539  43.9208174  53.3590174  67.7267456  44.8266125  53.0536413
  67.8997374  43.9687777  54.2886209  78.8357544  57.8337097   3.1555772
  78.4423685  56.9663811   3.0595404  79.5242453  57.7133512   3.8095835
  39.4388509  74.2105198  12.5682271  40.3418589  74.3087864  12.2663152
  39.5084381  74.1682196  13.5219562  55.3080940  58.4956169  28.0805969
  55.5652189  58.8637209  27.2352457  54.4641781  58.0763435  27.9125428
  20.8091807  67.2432852   3.9009097  20.5722618  67.2804499   4.8275813
  20.0856757  66.7723322   3.4874177   8.4701055  57.8427267  64.0330124
   9.4245422  57.8795338  64.0956879   8.2321304  57.0288086  64.4770098
  77.1339607  46.0161924  26.5362477  76.8979120  46.2022257  27.4450397
  78.0843496  45.9035778  26.5538788  62.3147106  13.4604609  28.7104297
  61.5978527  12.8278303  28.7564826  62.0766926  14.1385877  29.3426657
  65.4896355  79.0235281  43.0226851  65.2216005  78.3184195  42.4334335
  66.2439346  79.4235516  42.5899696  60.9972286  18.7521958   2.1909641
  60.4466534  18.2662475   2.8049266  60.4033136  19.3832350   1.7844138
  28.0649781  19.3087530  15.5913031  27.4297452  19.0632606  16.2639427
  27.9674244  18.6393988  14.9140441  62.9997444  23.9791322  44.6058798
  62.8612423  24.0150380  43.6594343  63.2168961  23.0636001  44.7816038
  60.1274729  38.6355257  68.9452934  59.4855165  39.3386936  68.8469028
  59.7492790  37.8973603  68.4674740  27.4353004  64.1583729  12.6984811
  26.9070148  64.7590160  13.2241964  28.2339382  64.6490145  12.5043607
  45.3362131  12.1384668  20.0892472  45.8764267  11.5118968  20.5707145
  45.8138227  12.9655075  20.1534820  44.5548773  67.8460217  15.1623058
  45.3480530  67.9330063  15.6910181  44.0725708  68.6579084  15.3186679
  60.5000210  63.6071777  10.3426671  60.9414053  63.4663725   9.5050591
  59.6521139  63.9832640  10.1063466  48.8627863  80.3686810  47.3819876
  48.6623383  80.3131104  46.4476585  48.0869007  80.0126648  47.8149891
  69.9769974  12.4023819  22.9839301  70.3479671  13.2561135  22.7608705
  70.0647640  11.8863237  22.1825480  15.3833795  80.3952217  27.7755260
  14.8767579  79.9322844  28.4428024  16.2746060  80.0609970  27.8767300
  77.6172638  35.7148695  58.5877371  77.6635742  36.0366726  57.6874447
  77.4312592  34.7801447  58.4987116  27.4462295  42.2764683  62.8168821
  27.8354239  41.5446043  62.3382092  27.5938034  42.0652580  63.7387514
  27.7453828  49.6119213   2.9134449  27.7034593  49.5148706   1.9621006
  27.0340919  50.2168465   3.1240672  23.3650923  24.4149113  63.9331722
  22.6230669  24.1672039  64.4847822  22.9668474  24.8313856  63.1688547
  19.8334515  60.5868006   1.7214957  19.1187179  60.4967546   2.3517966
  19.4644046  61.1167955   1.0149986  34.8421550  69.8187828   4.6014532
  34.3694139  69.3099642   3.9427790  35.4028964  69.1794968   5.0409037
  13.8697588  19.2119861  63.8947153  13.9597654  18.4090626  64.4079876
  13.9312994  19.9166608  64.5396042  18.6363864  71.6813040  28.5528779
  18.3977044  71.6349888  27.6270723  18.1858838  72.4609184  28.8776541
  21.4061403  78.8521910  54.1718102  21.0740566  78.0600405  54.5942450
  20.7496834  79.0626717  53.5077381  14.6284783  80.6947708  42.1642590
  14.2878091  81.0735035  41.3538647  14.5648718  81.4031029  42.8049278
  30.2091765   7.7208245  23.2390952  31.1494637   7.7935505  23.4028053
  30.1042461   6.8661559  22.8210473  31.5916777  31.1793327  70.3677511
  31.0821366  30.4525781  70.0093842  31.5948987  31.8359637  69.6712923
  57.0754719  24.8483944  13.2253683  57.0518494  25.7812667  13.0122387
  56.3457155  24.7227311  13.8319111  39.7586298  68.8305569  26.3216281
  40.4938316  68.6601973  26.9104266  40.0579977  69.5508718  25.7668662
  45.2581215  65.8601046   9.4998246  45.6106281  64.9881363   9.3219334
  45.8536386  66.4563799   9.0458959  79.5953751  38.7433958  26.9519925
  80.4339314  38.7703037  26.4911938  78.9798784  38.3914948  26.3089061
  39.6303582  58.2063150   8.7386090  39.7797155  58.9831877   8.1997311
  40.4681635  57.7434731   8.7290090  58.8451672  51.7048550  30.2528501
  59.6967316  51.9848585  30.5885124  58.9518166  51.7020464  29.3016124
  45.9498692  67.2617149  68.5062742  45.3022861  67.6476097  67.9163980
  46.6378355  66.9354296  67.9262114  25.9487605  76.1153555  26.5787172
  26.2813425  75.7559490  25.7562518  25.1555848  75.6102276  26.7574596
  26.5272141  54.3544483  18.4800577  27.2440767  53.7501717  18.2871985
  25.7505441  53.9280796  18.1178021  83.4008217  38.5337424  44.5076084
  84.2063713  38.0179095  44.5426702  82.7843857  37.9827499  44.0252686
  81.4262104  25.9201050  48.1600952  81.4104176  25.6417394  49.0757895
  81.9791031  26.7014742  48.1568003   2.6819333  22.7366018  17.6578915
   3.4146008  22.1272898  17.5675106   2.5744382  22.8434134  18.6030197
  10.2606440   9.0616578   9.8077625   9.5212102   8.7575251  10.3340447
   9.8908949   9.2076737   8.9370173  58.2561016  17.5416172  21.0916233
  59.0714455  17.7237546  20.6244302  58.5259867  17.4036860  21.9995713
   2.8915566  74.2340326  58.2836294   2.3326460  74.3239832  57.5117731
   3.1576794  75.1294994  58.4923124  59.5078087  45.9278870   3.8104320
  59.5926762  46.1689091   2.8879690  58.9727211  45.1342535   3.8023743
  46.1397743  47.0461750  -0.1209551  46.5338564  46.3463020  -0.6416342
  46.4024639  46.8522549   0.7788342  57.7938366   5.1294434  10.2059948
  58.4565163   5.4390633   9.5885605  57.6953316   4.1988045  10.0048995
  49.7803020  54.6603680  45.1014185  50.5685520  54.5755577  44.5650387
  50.0492096  55.2106667  45.8370113  31.7436218  47.0085382  21.8068171
  31.0869455  46.4621687  21.3749743  32.3841023  47.1998787  21.1216855
  28.2658887  39.5113134   8.6634034  27.3519135  39.2743969   8.5060835
  28.6512184  38.7296176   9.0592617   3.7305513  27.5419259  16.9932652
   3.8507769  28.2523322  17.6234245   4.5774636  27.0964694  16.9700551
  31.7701530  50.4594660   7.5376767  32.3090649  51.0531330   8.0605191
  32.3839808  49.7989464   7.2164923  78.8886023  16.0843599  63.4455538
  79.7288990  15.6319952  63.3714294  78.6158609  15.9361565  64.3510246
  21.3780880  23.3355951  59.7113895  22.0167828  22.6979423  60.0302935
  20.5841875  22.8232837  59.5581245   6.0326868  21.6561866  67.3728704
   5.8706313  22.5860524  67.2137403   5.9990078  21.5667558  68.3252907
  84.8909283  48.8812447  57.7172852  84.1735458  49.3999958  58.0812788
  84.6883965  48.8139439  56.7841816  55.7099199  78.9963150  58.6373901
  55.2691317  78.1602478  58.4859657  56.3980532  79.0281057  57.9727840
  36.3615894  37.3901892  24.1992950  36.5420151  37.5896335  23.2806540
  37.2033334  37.5075507  24.6396637   1.9570786  42.6470900  43.6108732
   2.2762461  41.7609406  43.4402847   1.0980462  42.6774788  43.1897163
  71.3970995  43.0076456  -0.0612992  71.8700838  43.6846018  -0.5452946
  71.8836021  42.9146767   0.7577875  52.8662395  64.7297621  26.8087387
  52.6404428  64.8080397  27.7356243  53.8226795  64.6933556  26.7974663
  16.4519668  60.3073645  51.8830967  16.1777687  60.8459234  52.6253891
  17.4084878  60.3275537  51.9129229  57.8892565  76.4018440  50.9744501
  58.3113909  75.6890774  50.4948759  57.7188444  77.0695591  50.3101110
  42.2108698  61.1672449   4.1464499  41.5450287  61.7371130   3.7615645
  42.2167444  60.3923225   3.5845837  74.8880148   5.8975023  69.7601557
  74.1968060   5.3284574  70.0987530  74.4913101   6.3335311  69.0060091
  36.8381023  45.4086447   3.9390919  36.7913771  45.0542498   3.0511433
  37.7292848  45.7497883   4.0142307  80.7775688  16.8624675  56.7571592
  81.2623119  17.4788225  56.2081909  81.2354946  16.0295630  56.6439819
  72.7777815  65.3273392  67.3576880  72.0137310  65.5641699  67.8834009
  73.0185270  66.1366844  66.9068718  45.1056862  72.5594807  60.1322937
  44.9400616  73.4180737  59.7429037  45.7523012  72.1549129  59.5539761
  61.2695169  59.3633699  17.7121794  61.5674210  58.5902071  17.2329068
  60.3248739  59.3902397  17.5600219  26.1386228  43.9120531   6.2120402
  27.0182109  44.0013790   5.8451897  25.5571270  44.2242146   5.5187517
  10.7529545  29.3948150  25.8839583  11.3088691  30.1287436  26.1457586
  11.3095236  28.8641953  25.3139520  22.0937252  43.4665585  20.9252858
  21.7008257  44.2513418  21.3073611  21.4405584  43.1516266  20.3004479
  69.0390348  42.0738411  68.2406473  68.1700325  41.9078112  67.8752708
  69.6379948  41.9335938  67.5072908  62.2244883  44.3738413  56.2259293
  62.7686262  44.1525888  55.4701567  61.4426279  44.7768068  55.8483839
  45.6753397  15.1328349  65.3303623  46.6035080  14.9365389  65.2030611
  45.4823828  15.8093429  64.6812582  66.6689920  38.0272174  59.7809649
  66.8975210  37.3246789  59.1723204  67.5054932  38.2975531  60.1596785
  41.2484664  51.8275200   0.6450693  42.0534259  51.3096987   0.6334965
  40.7133466  51.4540671  -0.0552232  57.1638489  27.4548602  15.8151174
  57.5036478  28.0486584  15.1456583  57.9422855  27.1456885  16.2784564
  28.7661052  78.6176252   2.2698702  29.4190097  78.8083458   2.9433486
  29.2383385  78.7177134   1.4433055  57.2674513  49.9281216  11.3173521
  57.2083092  50.6424952  11.9517040  57.0209646  50.3275633  10.4831314
  51.2780094   5.3066832  58.5957813  50.8849001   6.1761534  58.6713886
  51.1646891   4.9164057  59.4624233  21.5462804  27.9083467  61.6733646
  21.5145588  28.1509733  62.5987625  20.7595396  28.3014750  61.2955809
  42.6929760  68.8293982   3.9259541  42.0487547  68.6991692   3.2300726
  43.4528589  68.3181858   3.6476117  23.2307696  27.9757714  68.0424976
  23.5913372  28.5921955  68.6798716  22.2827315  28.0377102  68.1592131
  22.9275608  68.1112432  15.6622672  23.0813813  67.9865313  14.7257745
  22.2570753  68.7929726  15.7061589  10.4594922  19.8988426  54.1404724
   9.8884553  20.2046919  54.8451757   9.8616201  19.5266068  53.4922266
  12.3172009  42.9463291  13.3297682  12.3795581  43.1402254  14.2650485
  11.8788886  43.7105227  12.9554379  55.8906651  75.7789564  23.4669948
  56.5387869  75.5006409  24.1140747  55.0489712  75.5292702  23.8483524
  37.6714325  64.2631435  12.5889802  37.0973992  64.9054289  13.0063319
  37.7485704  63.5577202  13.2313704  63.4146309   6.4745921  46.7616415
  62.7614212   6.4635652  46.0620499  63.2712793   5.6557113  47.2361040
  65.4588318  51.3148975  19.6511209  64.7061157  51.3506508  19.0608895
  66.0370588  50.6585693  19.2623866  12.5600350   7.0047712  30.2292800
  12.6179528   6.7988718  29.2962837  11.8332160   6.4696163  30.5479884
  36.5461540  48.7439060  23.4513593  36.8159986  48.4004927  22.5996065
  36.1621499  47.9918337  23.9020896  79.4628906   5.9654808  61.0823393
  78.8011646   5.4744720  61.5694332  79.1449547   5.9652191  60.1794815
  37.7069974   8.3379656  55.3654337  38.5108304   8.3793741  54.8473930
  37.3873782   9.2400330  55.3841448  24.8876667  44.1689110  19.7228825
  24.0062714  44.2726994  20.0814915  24.8860550  44.6993494  18.9260983
  41.7569494  68.3174467   9.6653551  42.3544836  69.0392065   9.4697809
  41.9637585  68.0730200  10.5674183  72.0191240  30.9301758  42.8501511
  71.7747498  30.6169987  43.7210321  72.7656889  30.3855896  42.6005507
  15.3476214  37.0820951  65.4695129  15.7063437  37.7690911  66.0312843
  14.4100821  37.0801091  65.6625080  12.4948239   2.9460296  31.7344236
  12.0961857   3.3661738  30.9723234  12.0983076   2.0752755  31.7626143
  81.1158085  76.6319752  46.1007738  81.1365318  77.5852633  46.1847353
  82.0366287  76.3761902  46.0470533  86.3758945   5.4421717  45.8649969
  86.6197300   5.1908356  44.9741507  85.8039761   4.7357228  46.1651230
  45.5961227  66.3668537  60.2645302  46.4508009  66.6105175  60.6200361
  45.2421618  65.7429075  60.8982754  32.0487666  62.2199392  55.4012871
  32.0450592  62.3137236  56.3538742  32.9722333  62.1090698  55.1751280
  45.1954603  74.8049355  56.5872669  44.6629047  74.4676971  55.8669233
  45.1363611  75.7566452  56.5036678   9.4286048  29.9359012   3.5274154
   8.8270187  29.5031643   4.1332746   9.0616250  29.7622442   2.6605821
  34.4778299  36.1996555  31.8343592  34.0660882  36.8997741  31.3278651
  33.8165569  35.5084682  31.8691516  84.3049812  52.1065044  62.2224283
  85.1043606  52.1275759  62.7485228  83.6518192  52.5529528  62.7612162
  13.5028076  10.7867765  33.5176229  13.1382871   9.9742728  33.1666327
  13.4168398  11.4166462  32.8020096  22.5183773  46.8920088  38.5560298
  23.0828214  46.3026810  38.0557060  21.9228005  47.2632265  37.9050946
   1.7322373  23.6131430  70.6717873   1.6754812  24.4075203  70.1407719
   1.0886838  23.0197263  70.2845812  74.5910645   6.3461477  10.2043116
  74.1922665   5.5057257   9.9787384  75.3900766   6.3809550   9.6783805
  29.9104977  50.4468775  32.5115991  29.7445345  49.8740292  31.7629123
  29.4199157  51.2451363  32.3157907  69.1971111   1.7575857  60.5920029
  68.5436153   2.2961523  61.0382366  69.7469139   2.3863825  60.1244926
  21.5548658  39.8326135  12.4988174  20.7040238  39.6913671  12.9139674
  22.1693182  39.9019551  13.2294834  45.2960777  55.5591393  49.0726995
  44.8982668  56.0335779  49.8026943  44.6615505  54.8756981  48.8570356
  59.4402218  22.0293784   7.2169220  58.7797594  22.5228667   6.7306185
  58.9984941  21.2168622   7.4637568  60.0741720  11.0306191  54.0123987
  60.7116604  11.5779185  53.5538054  60.3354025  11.0780334  54.9320412
  86.5335719  86.5335719  86.5335719 109.4712190 109.4712190 109.4712190
